 Gaussian 09, Revision C.01,
 Gaussian 09:  EM64L-G09RevC.01 23-Sep-2011

 ----------------------------------------------------------------------
 #p opt(VeryTight,CalcAll,Raman) Integral(Grid=UltraFine) PBEPBE/AUG-cc
 -pVTZ
 ----------------------------------------------------------------------

 (Enter /apps/gaussian/g09_c01/g09/l101.exe)
 ----------------------------------------------
 Autjob by noodles.sh | Great noodly basis sets
 ----------------------------------------------
 Charge =  1 Multiplicity = 1

 SCF Done:  E(RPBE-PBE) =  -150.261809267     A.U. after    9 cycles
 SCF Done:  E(RPBE-PBE) =  -150.261852912     A.U. after    7 cycles
 SCF Done:  E(RPBE-PBE) =  -150.261852917     A.U. after    4 cycles
 Optimization completed.
    -- Stationary point found.

                         Standard orientation:
 ---------------------------------------------------------------------
 Center     Atomic      Atomic             Coordinates (Angstroms)
 Number     Number       Type             X           Y           Z
 ---------------------------------------------------------------------
      1          6           0        0.000000    0.000000    0.427876
      2          1           0        0.000000    0.000000    1.519498
      3          7           0        0.000000    1.168821   -0.175705
      4          1           0        0.000000    2.022712    0.375225
      5          1           0        0.000000    1.272945   -1.188667
      6          7           0        0.000000   -1.168821   -0.175705
      7          1           0        0.000000   -1.272945   -1.188667
      8          1           0        0.000000   -2.022712    0.375225
 ---------------------------------------------------------------------

 The electronic state is 1-A1.
 Alpha  occ. eigenvalues --  -14.25955 -14.25954 -10.22059  -1.13569  -1.05586
 Alpha  occ. eigenvalues --   -0.83365  -0.76174  -0.73947  -0.67600  -0.61634
 Alpha  occ. eigenvalues --   -0.59620  -0.47838
 Alpha virt. eigenvalues --   -0.27280  -0.20005  -0.17468  -0.17079  -0.11800
 Alpha virt. eigenvalues --   -0.11732  -0.11357  -0.10052  -0.07766  -0.06996
 Alpha virt. eigenvalues --   -0.06171  -0.06018  -0.05178  -0.03571  -0.03346

 Mulliken atomic charges:
              1
     1  C    0.061618
     2  H    0.581879
     3  N   -0.058932
     4  H    0.102185
     5  H    0.134999
     6  N   -0.058932
     7  H    0.134999
     8  H    0.102185
 Sum of Mulliken atomic charges =   1.00000

 Dipole moment (field-independent basis, Debye):
    X=              0.0000    Y=              0.0000    Z=             -0.2801  Tot=              0.2801
 Quadrupole moment (field-independent basis, Debye-Ang):
   XX=            -19.1766   YY=             -4.3459   ZZ=            -10.4021
   XY=              0.0000   XZ=              0.0000   YZ=              0.0000

  Exact polarizability:  18.698   0.000  38.357   0.000   0.000  25.740
 Approx polarizability:  27.361   0.000  71.003   0.000   0.000  40.937

                     1                      2                      3
                    A1                     A2                     A2
 Frequencies --   502.7044               522.3540               578.6854
 Red. masses --     1.9852                 1.1415                 1.1168
 Frc consts  --     0.2956                 0.1835                 0.2203
 IR Inten    --     0.8020                 0.0000                 0.0000
 Raman Activ --     2.0149                 0.0002                 0.1320

                     4                      5                      6
                    B1                     B1                     B2
 Frequencies --   595.1655               699.4289              1003.0160
 Red. masses --     1.1932                 1.5973                 1.1514
 Frc consts  --     0.2490                 0.4604                 0.6825
 IR Inten    --   394.5011                 0.9730                 0.7871
 Raman Activ --     0.0001                 0.0838                 0.1122

                     7                      8                      9
                    B1                     A1                     B2
 Frequencies --  1033.3842              1095.8260              1345.2183
 Red. masses --     1.2118                 1.9397                 1.1885
 Frc consts  --     0.7624                 1.3724                 1.2671
 IR Inten    --    22.9411                 4.1464                42.6426
 Raman Activ --     0.1253                14.1593                 3.6458

                    10                     11                     12
                    A1                     B2                     A1
 Frequencies --  1368.8137              1567.8507              1638.7561
 Red. masses --     2.4831                 1.1616                 1.2193
 Frc consts  --     2.7412                 1.6823                 1.9293
 IR Inten    --     5.5075                14.9905                35.7136
 Raman Activ --    17.5995                 3.8453                 2.2019

                    13                     14                     15
                    B2                     A1                     B2
 Frequencies --  1727.5882              3130.7194              3463.0651
 Red. masses --     4.2025                 1.0973                 1.0469
 Frc consts  --     7.3899                 6.3365                 7.3973
 IR Inten    --   364.7926                 7.8482               282.3659
 Raman Activ --     0.1242                59.1261                 1.0892

                    16                     17                     18
                    A1                     B2                     A1
 Frequencies --  3476.6072              3580.3398              3580.8345
 Red. masses --     1.0510                 1.1040                 1.1052
 Frc consts  --     7.4846                 8.3378                 8.3496
 IR Inten    --    41.8993                98.4254               171.5491
 Raman Activ --   169.9830                28.7200                38.4349

 - Thermochemistry -
 -------------------
 Temperature   298.150 Kelvin.  Pressure   1.00000 Atm.
 Atom     1 has atomic number  6 and mass  12.00000

 Molecular mass:    45.04527 amu.
 Principal axes and moments of inertia in atomic units:
                           1         2         3
     Eigenvalues --    30.42547 177.74364 208.16910
           X            0.00000   0.00000   1.00000
           Y            1.00000   0.00000   0.00000
           Z            0.00000   1.00000   0.00000
 This molecule is an asymmetric top.
 Rotational symmetry number  2.
 Rotational temperatures (Kelvin)      2.84675     0.48730     0.41607
 Rotational constants (GHZ):          59.31680    10.15362     8.66959
 Zero-point vibrational energy     184885.0 (Joules/Mol)
                                   44.18857 (Kcal/Mol)
 Warning -- explicit consideration of   4 degrees of freedom as
           vibrations may cause significant error
 Vibrational temperatures:    723.28   751.55   832.60   856.31  1006.32
          (Kelvin)           1443.11  1486.81  1576.65  1935.47  1969.42
                             2255.78  2357.80  2485.61  4504.40  4982.57
                             5002.06  5151.30  5152.02

 Zero-point correction=                           0.070419 (Hartree/Particle)
 Thermal correction to Energy=                    0.074250
 Thermal correction to Enthalpy=                  0.075194
 Thermal correction to Gibbs Free Energy=         0.046486
 Sum of electronic and zero-point Energies=           -150.191434
 Sum of electronic and thermal Energies=              -150.187603
 Sum of electronic and thermal Enthalpies=            -150.186659
 Sum of electronic and thermal Free Energies=         -150.215367

                     E (Thermal)             CV                S
                      KCal/Mol        Cal/Mol-Kelvin    Cal/Mol-Kelvin
 Total                   46.592             12.738             60.420
 Electronic               0.000              0.000              0.000
 Translational            0.889              2.981             37.341
 Rotational               0.889              2.981             20.270
 Vibrational             44.815              6.777              2.809
 Vibration     1          0.858              1.244              0.651
 Vibration     2          0.877              1.201              0.605
 Vibration     3          0.935              1.077              0.488
 Vibration     4          0.953              1.042              0.458

 Normal termination of Gaussian 09 at Thu Feb 26 00:53:39 2015.
