 Gaussian 09, Revision C.01,
 Gaussian 09:  EM64L-G09RevC.01 23-Sep-2011

 ----------------------------------------------------------------------
 #p opt(VeryTight,CalcAll,Raman) Integral(Grid=UltraFine) PBEPBE/AUG-cc
 -pVDZ
 ----------------------------------------------------------------------

 (Enter /apps/gaussian/g09_c01/g09/l101.exe)
 ----------------------------------------------
 Autjob by noodles.sh | Great noodly basis sets
 ----------------------------------------------
 Charge =  1 Multiplicity = 1

 SCF Done:  E(RPBE-PBE) =  -150.223139355     A.U. after    9 cycles
 SCF Done:  E(RPBE-PBE) =  -150.223480038     A.U. after    8 cycles
 SCF Done:  E(RPBE-PBE) =  -150.223480261     A.U. after    6 cycles
 SCF Done:  E(RPBE-PBE) =  -150.223480261     A.U. after    2 cycles
 Optimization completed.
    -- Stationary point found.

                         Standard orientation:
 ---------------------------------------------------------------------
 Center     Atomic      Atomic             Coordinates (Angstroms)
 Number     Number       Type             X           Y           Z
 ---------------------------------------------------------------------
      1          6           0        0.000000    0.000000    0.430912
      2          1           0        0.000000    0.000000    1.529364
      3          7           0        0.000000    1.173405   -0.176962
      4          1           0        0.000000    2.031004    0.375248
      5          1           0        0.000000    1.275908   -1.193931
      6          7           0        0.000000   -1.173405   -0.176962
      7          1           0        0.000000   -1.275908   -1.193931
      8          1           0        0.000000   -2.031004    0.375248
 ---------------------------------------------------------------------

 The electronic state is 1-A1.
 Alpha  occ. eigenvalues --  -14.27364 -14.27363 -10.23290  -1.13484  -1.05531
 Alpha  occ. eigenvalues --   -0.83289  -0.75942  -0.73783  -0.67477  -0.61550
 Alpha  occ. eigenvalues --   -0.59328  -0.47633
 Alpha virt. eigenvalues --   -0.27376  -0.20055  -0.17516  -0.17178  -0.11832
 Alpha virt. eigenvalues --   -0.11769  -0.11041  -0.09524  -0.07655  -0.06548
 Alpha virt. eigenvalues --   -0.05209  -0.04532  -0.03930  -0.02733  -0.02437

 Mulliken atomic charges:
              1
     1  C    1.118141
     2  H   -0.238916
     3  N    0.063505
     4  H    0.050569
     5  H   -0.053688
     6  N    0.063505
     7  H   -0.053688
     8  H    0.050569
 Sum of Mulliken atomic charges =   1.00000

 Dipole moment (field-independent basis, Debye):
    X=              0.0000    Y=              0.0000    Z=             -0.2744  Tot=              0.2744
 Quadrupole moment (field-independent basis, Debye-Ang):
   XX=            -19.2946   YY=             -4.3016   ZZ=            -10.3854
   XY=              0.0000   XZ=              0.0000   YZ=              0.0000

  Exact polarizability:  18.826   0.000  38.712   0.000   0.000  25.879
 Approx polarizability:  27.435   0.000  72.267   0.000   0.000  41.275

                     1                      2                      3
                    A1                     A2                     A2
 Frequencies --   497.8296               521.0600               588.3634
 Red. masses --     1.9943                 1.1247                 1.1332
 Frc consts  --     0.2912                 0.1799                 0.2311
 IR Inten    --     0.7332                 0.0000                 0.0000
 Raman Activ --     2.0283                 0.0121                 0.1838

                     4                      5                      6
                    B1                     B1                     B2
 Frequencies --   600.6961               697.3313               999.1975
 Red. masses --     1.1976                 1.5888                 1.1524
 Frc consts  --     0.2546                 0.4552                 0.6779
 IR Inten    --   395.1306                 0.6603                 0.8245
 Raman Activ --     0.0000                 0.0824                 0.1412

                     7                      8                      9
                    B1                     A1                     B2
 Frequencies --  1031.0918              1093.4572              1340.9041
 Red. masses --     1.2109                 1.9031                 1.1749
 Frc consts  --     0.7585                 1.3407                 1.2446
 IR Inten    --    26.0326                 4.4828                39.3855
 Raman Activ --     0.1560                13.9922                 3.6975

                    10                     11                     12
                    A1                     B2                     A1
 Frequencies --  1363.0816              1556.9753              1633.0072
 Red. masses --     2.4686                 1.1594                 1.2315
 Frc consts  --     2.7024                 1.6560                 1.9349
 IR Inten    --     4.6062                14.9804                35.5540
 Raman Activ --    18.2870                 4.1700                 2.2453

                    13                     14                     15
                    B2                     A1                     B2
 Frequencies --  1735.5906              3147.0610              3459.8258
 Red. masses --     4.3728                 1.0980                 1.0480
 Frc consts  --     7.7608                 6.4072                 7.3914
 IR Inten    --   359.5717                 8.2492               288.0570
 Raman Activ --     0.0943                60.3916                 1.0396

                    16                     17                     18
                    A1                     B2                     A1
 Frequencies --  3472.8999              3586.4598              3587.0207
 Red. masses --     1.0520                 1.1044                 1.1056
 Frc consts  --     7.4757                 8.3693                 8.3816
 IR Inten    --    39.0543                94.7369               171.1239
 Raman Activ --   173.6420                29.5349                38.6089

 - Thermochemistry -
 -------------------
 Temperature   298.150 Kelvin.  Pressure   1.00000 Atm.
 Atom     1 has atomic number  6 and mass  12.00000

 Molecular mass:    45.04527 amu.
 Principal axes and moments of inertia in atomic units:
                           1         2         3
     Eigenvalues --    30.78021 179.11364 209.89385
           X            0.00000   0.00000   1.00000
           Y            1.00000   0.00000   0.00000
           Z            0.00000   1.00000   0.00000
 This molecule is an asymmetric top.
 Rotational symmetry number  2.
 Rotational temperatures (Kelvin)      2.81395     0.48357     0.41266
 Rotational constants (GHZ):          58.63317    10.07596     8.59835
 Zero-point vibrational energy     184893.9 (Joules/Mol)
                                   44.19071 (Kcal/Mol)
 Warning -- explicit consideration of   4 degrees of freedom as
           vibrations may cause significant error
 Vibrational temperatures:    716.26   749.69   846.52   864.27  1003.30
          (Kelvin)           1437.62  1483.51  1573.24  1929.26  1961.17
                             2240.14  2349.53  2497.12  4527.91  4977.91
                             4996.72  5160.11  5160.92

 Zero-point correction=                           0.070422 (Hartree/Particle)
 Thermal correction to Energy=                    0.074251
 Thermal correction to Enthalpy=                  0.075195
 Thermal correction to Gibbs Free Energy=         0.046478
 Sum of electronic and zero-point Energies=           -150.153058
 Sum of electronic and thermal Energies=              -150.149229
 Sum of electronic and thermal Enthalpies=            -150.148285
 Sum of electronic and thermal Free Energies=         -150.177003

                     E (Thermal)             CV                S
                      KCal/Mol        Cal/Mol-Kelvin    Cal/Mol-Kelvin
 Total                   46.593             12.739             60.442
 Electronic               0.000              0.000              0.000
 Translational            0.889              2.981             37.341
 Rotational               0.889              2.981             20.298
 Vibrational             44.816              6.777              2.804
 Vibration     1          0.853              1.255              0.664
 Vibration     2          0.876              1.203              0.608
 Vibration     3          0.946              1.057              0.470
 Vibration     4          0.959              1.030              0.448

 Normal termination of Gaussian 09 at Thu Feb 26 00:36:56 2015.
