 Gaussian 09, Revision C.01,
 Gaussian 09:  EM64L-G09RevC.01 23-Sep-2011

 ---------------------------------------------------------------------
 #p opt(VeryTight,CalcAll,Raman) Integral(Grid=UltraFine) b3lyp/6-31g*
 ---------------------------------------------------------------------

 (Enter /apps/gaussian/g09_c01/g09/l101.exe)
 ----------------------------------------------
 Autjob by noodles.sh | Great noodly basis sets
 ----------------------------------------------
 Charge =  1 Multiplicity = 1

 SCF Done:  E(RB3LYP) =  -150.381701679     A.U. after   11 cycles
 SCF Done:  E(RB3LYP) =  -150.381701839     A.U. after    6 cycles
 Optimization completed.
    -- Stationary point found.

                         Standard orientation:
 ---------------------------------------------------------------------
 Center     Atomic      Atomic             Coordinates (Angstroms)
 Number     Number       Type             X           Y           Z
 ---------------------------------------------------------------------
      1          6           0        0.000000    0.000000    0.427626
      2          1           0        0.000000    0.000000    1.514135
      3          7           0        0.000000    1.167836   -0.175066
      4          1           0        0.000000    2.022080    0.370938
      5          1           0        0.000000    1.272516   -1.185426
      6          7           0        0.000000   -1.167836   -0.175066
      7          1           0        0.000000   -1.272516   -1.185426
      8          1           0        0.000000   -2.022080    0.370938
 ---------------------------------------------------------------------

 The electronic state is 1-A1.
 Alpha  occ. eigenvalues --  -14.61148 -14.61147 -10.53406  -1.22010  -1.13499
 Alpha  occ. eigenvalues --   -0.89820  -0.81908  -0.79399  -0.72856  -0.66941
 Alpha  occ. eigenvalues --   -0.63842  -0.51177
 Alpha virt. eigenvalues --   -0.22939  -0.14131  -0.11624  -0.10904  -0.05256
 Alpha virt. eigenvalues --   -0.03075   0.09317   0.10872   0.31349   0.32189
 Alpha virt. eigenvalues --    0.32401   0.38032   0.45647   0.48727   0.50472

 Mulliken atomic charges:
              1
     1  C    0.367098
     2  H    0.274644
     3  N   -0.653808
     4  H    0.423806
     5  H    0.409131
     6  N   -0.653808
     7  H    0.409131
     8  H    0.423806
 Sum of Mulliken atomic charges =   1.00000

 Dipole moment (field-independent basis, Debye):
    X=              0.0000    Y=              0.0000    Z=             -0.2058  Tot=              0.2058
 Quadrupole moment (field-independent basis, Debye-Ang):
   XX=            -19.1352   YY=             -4.2232   ZZ=            -10.1795
   XY=              0.0000   XZ=              0.0000   YZ=              0.0000

  Exact polarizability:   9.686   0.000  33.343   0.000   0.000  21.533
 Approx polarizability:  12.801   0.000  49.373   0.000   0.000  28.419

                     1                      2                      3
                    A1                     A2                     A2
 Frequencies --   517.6315               533.5575               588.5851
 Red. masses --     2.0066                 1.1240                 1.1343
 Frc consts  --     0.3168                 0.1885                 0.2315
 IR Inten    --     0.8927                 0.0000                 0.0000
 Raman Activ --     2.1471                 0.1229                 0.2936

                     4                      5                      6
                    B1                     B1                     B2
 Frequencies --   624.7266               715.9522              1043.0504
 Red. masses --     1.1744                 1.6218                 1.1539
 Frc consts  --     0.2701                 0.4898                 0.7396
 IR Inten    --   565.3785                10.9390                 1.4192
 Raman Activ --     0.0161                 1.2913                 0.0758

                     7                      8                      9
                    B1                     A1                     B2
 Frequencies --  1077.1521              1131.9695              1396.0516
 Red. masses --     1.2163                 1.9423                 1.1995
 Frc consts  --     0.8315                 1.4663                 1.3774
 IR Inten    --    17.7908                 5.7798                51.5124
 Raman Activ --     0.2701                11.0357                 4.3675

                    10                     11                     12
                    A1                     B2                     A1
 Frequencies --  1422.4109              1631.6585              1713.5754
 Red. masses --     2.4478                 1.1935                 1.2155
 Frc consts  --     2.9179                 1.8720                 2.1028
 IR Inten    --    11.2367                11.5894                44.2477
 Raman Activ --    12.0436                 3.9521                 2.4462

                    13                     14                     15
                    B2                     A1                     B2
 Frequencies --  1796.1054              3242.5124              3548.4847
 Red. masses --     3.6766                 1.0981                 1.0477
 Frc consts  --     6.9880                 6.8025                 7.7725
 IR Inten    --   419.7074                 5.1362               295.7837
 Raman Activ --     0.6475                56.8218                 0.8697

                    16                     17                     18
                    A1                     B2                     A1
 Frequencies --  3563.7039              3662.4971              3663.4705
 Red. masses --     1.0519                 1.1047                 1.1062
 Frc consts  --     7.8712                 8.7307                 8.7474
 IR Inten    --    43.3503               102.7689               184.2194
 Raman Activ --   135.1243                36.0774                43.3870

 - Thermochemistry -
 -------------------
 Temperature   298.150 Kelvin.  Pressure   1.00000 Atm.
 Atom     1 has atomic number  6 and mass  12.00000

 Molecular mass:    45.04527 amu.
 Principal axes and moments of inertia in atomic units:
                           1         2         3
     Eigenvalues --    30.25679 177.48712 207.74391
           X            0.00000   0.00000   1.00000
           Y            1.00000   0.00000   0.00000
           Z            0.00000   1.00000   0.00000
 This molecule is an asymmetric top.
 Rotational symmetry number  2.
 Rotational temperatures (Kelvin)      2.86262     0.48800     0.41693
 Rotational constants (GHZ):          59.64748    10.16829     8.68734
 Zero-point vibrational energy     190643.4 (Joules/Mol)
                                   45.56488 (Kcal/Mol)
 Warning -- explicit consideration of   3 degrees of freedom as
           vibrations may cause significant error
 Vibrational temperatures:    744.76   767.67   846.84   898.84  1030.09
          (Kelvin)           1500.71  1549.78  1628.65  2008.60  2046.53
                             2347.59  2465.45  2584.19  4665.25  5105.47
                             5127.37  5269.51  5270.91

 Zero-point correction=                           0.072612 (Hartree/Particle)
 Thermal correction to Energy=                    0.076377
 Thermal correction to Enthalpy=                  0.077321
 Thermal correction to Gibbs Free Energy=         0.048712
 Sum of electronic and zero-point Energies=           -150.309090
 Sum of electronic and thermal Energies=              -150.305325
 Sum of electronic and thermal Enthalpies=            -150.304380
 Sum of electronic and thermal Free Energies=         -150.332990

                     E (Thermal)             CV                S
                      KCal/Mol        Cal/Mol-Kelvin    Cal/Mol-Kelvin
 Total                   47.927             12.382             60.215
 Electronic               0.000              0.000              0.000
 Translational            0.889              2.981             37.341
 Rotational               0.889              2.981             20.261
 Vibrational             46.150              6.421              2.612
 Vibration     1          0.873              1.211              0.615
 Vibration     2          0.889              1.176              0.579
 Vibration     3          0.946              1.056              0.470

 Normal termination of Gaussian 09 at Wed Feb 25 23:55:37 2015.
