 Gaussian 09, Revision C.01,
 Gaussian 09:  EM64L-G09RevC.01 23-Sep-2011

 ----------------------------------------------------------------------
 #p opt(VeryTight,CalcAll,Raman) Integral(Grid=UltraFine) b3lyp/AUG-cc-
 pVQZ
 ----------------------------------------------------------------------

 (Enter /apps/gaussian/g09_c01/g09/l101.exe)
 ----------------------------------------------
 Autjob by noodles.sh | Great noodly basis sets
 ----------------------------------------------
 Charge =  1 Multiplicity = 1

 SCF Done:  E(RB3LYP) =  -150.461288687     A.U. after    8 cycles
 SCF Done:  E(RB3LYP) =  -150.461508611     A.U. after    7 cycles
 SCF Done:  E(RB3LYP) =  -150.461508681     A.U. after    5 cycles
 Optimization completed.
    -- Stationary point found.

                         Standard orientation:
 ---------------------------------------------------------------------
 Center     Atomic      Atomic             Coordinates (Angstroms)
 Number     Number       Type             X           Y           Z
 ---------------------------------------------------------------------
      1          6           0        0.000000    0.000000    0.426099
      2          1           0        0.000000    0.000000    1.508711
      3          7           0        0.000000    1.161666   -0.174610
      4          1           0        0.000000    2.010664    0.369429
      5          1           0        0.000000    1.262540   -1.179813
      6          7           0        0.000000   -1.161666   -0.174610
      7          1           0        0.000000   -1.262540   -1.179813
      8          1           0        0.000000   -2.010664    0.369429
 ---------------------------------------------------------------------

 The electronic state is 1-A1.
 Alpha  occ. eigenvalues --  -14.58798 -14.58797 -10.51670  -1.22551  -1.13955
 Alpha  occ. eigenvalues --   -0.90101  -0.82408  -0.79899  -0.73176  -0.67142
 Alpha  occ. eigenvalues --   -0.64744  -0.52057
 Alpha virt. eigenvalues --   -0.24182  -0.18465  -0.15910  -0.15538  -0.10949
 Alpha virt. eigenvalues --   -0.10500  -0.10366  -0.09143  -0.06889  -0.06719
 Alpha virt. eigenvalues --   -0.06252  -0.05892  -0.04985  -0.03501  -0.03444

 Mulliken atomic charges:
              1
     1  C    0.110272
     2  H    0.580432
     3  N   -0.481378
     4  H    0.284991
     5  H    0.351035
     6  N   -0.481378
     7  H    0.351035
     8  H    0.284991
 Sum of Mulliken atomic charges =   1.00000

 Dipole moment (field-independent basis, Debye):
    X=              0.0000    Y=              0.0000    Z=             -0.2091  Tot=              0.2091
 Quadrupole moment (field-independent basis, Debye-Ang):
   XX=            -19.1201   YY=             -4.6688   ZZ=            -10.4332
   XY=              0.0000   XZ=              0.0000   YZ=              0.0000

  Exact polarizability:  18.254   0.000  37.165   0.000   0.000  24.951
 Approx polarizability:  24.348   0.000  53.811   0.000   0.000  34.426

                     1                      2                      3
                    A1                     A2                     A2
 Frequencies --   520.4541               546.2372               606.2987
 Red. masses --     1.9950                 1.0860                 1.1753
 Frc consts  --     0.3184                 0.1909                 0.2545
 IR Inten    --     0.5197                 0.0000                 0.0000
 Raman Activ --     1.9645                 0.0000                 0.1767

                     4                      5                      6
                    B1                     B1                     B2
 Frequencies --   631.4468               720.8953              1041.9027
 Red. masses --     1.1482                 1.6490                 1.1531
 Frc consts  --     0.2697                 0.5049                 0.7375
 IR Inten    --   409.4676                13.4123                 0.4012
 Raman Activ --     0.0035                 0.0576                 0.0930

                     7                      8                      9
                    B1                     A1                     B2
 Frequencies --  1085.6666              1127.3512              1386.7900
 Red. masses --     1.2296                 1.9707                 1.2242
 Frc consts  --     0.8539                 1.4756                 1.3872
 IR Inten    --    17.1036                 3.1014                62.1339
 Raman Activ --     0.1079                14.5266                 3.3935

                    10                     11                     12
                    A1                     B2                     A1
 Frequencies --  1413.7649              1618.0161              1694.1921
 Red. masses --     2.4352                 1.1986                 1.2135
 Frc consts  --     2.8678                 1.8488                 2.0522
 IR Inten    --     8.1164                 6.3944                38.9736
 Raman Activ --    16.8751                 3.0606                 2.1233

                    13                     14                     15
                    B2                     A1                     B2
 Frequencies --  1764.9017              3198.7884              3535.2827
 Red. masses --     3.4361                 1.0978                 1.0467
 Frc consts  --     6.3061                 6.6184                 7.7074
 IR Inten    --   422.5265                 7.3537               302.4796
 Raman Activ --     0.4198                55.2937                 0.8446

                    16                     17                     18
                    A1                     B2                     A1
 Frequencies --  3549.6361              3652.5951              3653.4715
 Red. masses --     1.0511                 1.1046                 1.1061
 Frc consts  --     7.8031                 8.6827                 8.6988
 IR Inten    --    44.0756                97.1213               184.5198
 Raman Activ --   161.0188                27.3172                36.4573

 - Thermochemistry -
 -------------------
 Temperature   298.150 Kelvin.  Pressure   1.00000 Atm.
 Atom     1 has atomic number  6 and mass  12.00000

 Molecular mass:    45.04527 amu.
 Principal axes and moments of inertia in atomic units:
                           1         2         3
     Eigenvalues --    30.02243 175.53630 205.55873
           X            0.00000   0.00000   1.00000
           Y            1.00000   0.00000   0.00000
           Z            0.00000   1.00000   0.00000
 This molecule is an asymmetric top.
 Rotational symmetry number  2.
 Rotational temperatures (Kelvin)      2.88497     0.49342     0.42136
 Rotational constants (GHZ):          60.11309    10.28130     8.77969
 Zero-point vibrational energy     189893.4 (Joules/Mol)
                                   45.38560 (Kcal/Mol)
 Warning -- explicit consideration of   3 degrees of freedom as
           vibrations may cause significant error
 Vibrational temperatures:    748.82   785.91   872.33   908.51  1037.21
          (Kelvin)           1499.06  1562.03  1622.00  1995.28  2034.09
                             2327.96  2437.56  2539.30  4602.34  5086.48
                             5107.13  5255.26  5256.52

 Zero-point correction=                           0.072327 (Hartree/Particle)
 Thermal correction to Energy=                    0.076067
 Thermal correction to Enthalpy=                  0.077011
 Thermal correction to Gibbs Free Energy=         0.048452
 Sum of electronic and zero-point Energies=           -150.389182
 Sum of electronic and thermal Energies=              -150.385442
 Sum of electronic and thermal Enthalpies=            -150.384498
 Sum of electronic and thermal Free Energies=         -150.413056

                     E (Thermal)             CV                S
                      KCal/Mol        Cal/Mol-Kelvin    Cal/Mol-Kelvin
 Total                   47.733             12.299             60.107
 Electronic               0.000              0.000              0.000
 Translational            0.889              2.981             37.341
 Rotational               0.889              2.981             20.232
 Vibrational             45.955              6.337              2.534
 Vibration     1          0.875              1.205              0.609
 Vibration     2          0.901              1.148              0.552
 Vibration     3          0.965              1.018              0.439

 Normal termination of Gaussian 09 at Thu Feb 26 03:27:04 2015.
