 Gaussian 09, Revision C.01,
 Gaussian 09:  EM64L-G09RevC.01 23-Sep-2011

 ----------------------------------------------------------------------
 #p opt(VeryTight,CalcAll,Raman) Integral(Grid=UltraFine) b3lyp/AUG-cc-
 pVDZ
 ----------------------------------------------------------------------

 (Enter /apps/gaussian/g09_c01/g09/l101.exe)
 ----------------------------------------------
 Autjob by noodles.sh | Great noodly basis sets
 ----------------------------------------------
 Charge =  1 Multiplicity = 1

 SCF Done:  E(RB3LYP) =  -150.408670010     A.U. after    9 cycles
 SCF Done:  E(RB3LYP) =  -150.408695224     A.U. after    7 cycles
 SCF Done:  E(RB3LYP) =  -150.408695226     A.U. after    4 cycles
 Optimization completed.
    -- Stationary point found.

                         Standard orientation:
 ---------------------------------------------------------------------
 Center     Atomic      Atomic             Coordinates (Angstroms)
 Number     Number       Type             X           Y           Z
 ---------------------------------------------------------------------
      1          6           0        0.000000    0.000000    0.429366
      2          1           0        0.000000    0.000000    1.520323
      3          7           0        0.000000    1.167467   -0.176068
      4          1           0        0.000000    2.020596    0.370576
      5          1           0        0.000000    1.266963   -1.186359
      6          7           0        0.000000   -1.167467   -0.176068
      7          1           0        0.000000   -1.266963   -1.186359
      8          1           0        0.000000   -2.020596    0.370576
 ---------------------------------------------------------------------

 The electronic state is 1-A1.
 Alpha  occ. eigenvalues --  -14.60772 -14.60770 -10.53396  -1.22445  -1.13883
 Alpha  occ. eigenvalues --   -0.89971  -0.82081  -0.79639  -0.72970  -0.66983
 Alpha  occ. eigenvalues --   -0.64383  -0.51808
 Alpha virt. eigenvalues --   -0.24307  -0.18518  -0.15950  -0.15634  -0.10477
 Alpha virt. eigenvalues --   -0.10364  -0.10274  -0.08212  -0.06607  -0.05734
 Alpha virt. eigenvalues --   -0.04391  -0.03635  -0.02724  -0.01794  -0.01674

 Mulliken atomic charges:
              1
     1  C    1.089821
     2  H   -0.300101
     3  N    0.162806
     4  H    0.022497
     5  H   -0.080163
     6  N    0.162806
     7  H   -0.080163
     8  H    0.022497
 Sum of Mulliken atomic charges =   1.00000

 Dipole moment (field-independent basis, Debye):
    X=              0.0000    Y=              0.0000    Z=             -0.1988  Tot=              0.1988
 Quadrupole moment (field-independent basis, Debye-Ang):
   XX=            -19.2677   YY=             -4.6246   ZZ=            -10.4060
   XY=              0.0000   XZ=              0.0000   YZ=              0.0000

  Exact polarizability:  18.407   0.000  37.639   0.000   0.000  25.160
 Approx polarizability:  24.471   0.000  54.815   0.000   0.000  34.809

                     1                      2                      3
                    A1                     A2                     A2
 Frequencies --   512.8857               542.8761               612.3076
 Red. masses --     2.0037                 1.0879                 1.1730
 Frc consts  --     0.3105                 0.1889                 0.2591
 IR Inten    --     0.4613                 0.0000                 0.0000
 Raman Activ --     1.9909                 0.0086                 0.2208

                     4                      5                      6
                    B1                     B1                     B2
 Frequencies --   630.8581               716.7051              1033.2780
 Red. masses --     1.1553                 1.6382                 1.1531
 Frc consts  --     0.2709                 0.4958                 0.7254
 IR Inten    --   413.1298                10.6304                 0.4991
 Raman Activ --     0.0031                 0.0598                 0.1226

                     7                      8                      9
                    B1                     A1                     B2
 Frequencies --  1079.3051              1122.2194              1377.1301
 Red. masses --     1.2266                 1.9298                 1.2015
 Frc consts  --     0.8418                 1.4319                 1.3425
 IR Inten    --    20.3453                 3.4561                55.6607
 Raman Activ --     0.1290                14.3274                 3.4609

                    10                     11                     12
                    A1                     B2                     A1
 Frequencies --  1403.1128              1603.9077              1685.4273
 Red. masses --     2.4278                 1.1955                 1.2256
 Frc consts  --     2.8161                 1.8120                 2.0512
 IR Inten    --     6.9452                 6.6095                39.0141
 Raman Activ --    17.7010                 3.4705                 2.2039

                    13                     14                     15
                    B2                     A1                     B2
 Frequencies --  1768.8397              3212.2473              3531.2284
 Red. masses --     3.6411                 1.0985                 1.0476
 Frc consts  --     6.7121                 6.6786                 7.6967
 IR Inten    --   419.7542                 8.0096               308.6977
 Raman Activ --     0.3480                56.5082                 0.8401

                    16                     17                     18
                    A1                     B2                     A1
 Frequencies --  3545.3650              3657.8870              3658.7299
 Red. masses --     1.0520                 1.1049                 1.1065
 Frc consts  --     7.7909                 8.7107                 8.7266
 IR Inten    --    42.1889                94.8886               184.9999
 Raman Activ --   164.4589                28.1081                36.7780

 - Thermochemistry -
 -------------------
 Temperature   298.150 Kelvin.  Pressure   1.00000 Atm.
 Atom     1 has atomic number  6 and mass  12.00000

 Molecular mass:    45.04527 amu.
 Principal axes and moments of inertia in atomic units:
                           1         2         3
     Eigenvalues --    30.43756 177.25623 207.69379
           X            0.00000   0.00000   1.00000
           Y            1.00000   0.00000   0.00000
           Z            0.00000   1.00000   0.00000
 This molecule is an asymmetric top.
 Rotational symmetry number  2.
 Rotational temperatures (Kelvin)      2.84562     0.48864     0.41703
 Rotational constants (GHZ):          59.29324    10.18154     8.68943
 Zero-point vibrational energy     189574.1 (Joules/Mol)
                                   45.30929 (Kcal/Mol)
 Warning -- explicit consideration of   3 degrees of freedom as
           vibrations may cause significant error
 Vibrational temperatures:    737.93   781.08   880.97   907.66  1031.18
          (Kelvin)           1486.65  1552.88  1614.62  1981.38  2018.76
                             2307.66  2424.95  2544.96  4621.70  5080.64
                             5100.98  5262.88  5264.09

 Zero-point correction=                           0.072205 (Hartree/Particle)
 Thermal correction to Energy=                    0.075955
 Thermal correction to Enthalpy=                  0.076899
 Thermal correction to Gibbs Free Energy=         0.048311
 Sum of electronic and zero-point Energies=           -150.336490
 Sum of electronic and thermal Energies=              -150.332741
 Sum of electronic and thermal Enthalpies=            -150.331797
 Sum of electronic and thermal Free Energies=         -150.360384

                     E (Thermal)             CV                S
                      KCal/Mol        Cal/Mol-Kelvin    Cal/Mol-Kelvin
 Total                   47.662             12.349             60.168
 Electronic               0.000              0.000              0.000
 Translational            0.889              2.981             37.341
 Rotational               0.889              2.981             20.266
 Vibrational             45.885              6.387              2.562
 Vibration     1          0.868              1.221              0.627
 Vibration     2          0.898              1.155              0.559
 Vibration     3          0.972              1.006              0.429

 Normal termination of Gaussian 09 at Thu Feb 26 00:05:15 2015.
