 Gaussian 09, Revision C.01,
 Gaussian 09:  EM64L-G09RevC.01 23-Sep-2011

 ----------------------------------------------------------------------
 #p opt(VeryTight,CalcAll,Raman) Integral(Grid=UltraFine) PBE1PBE/6-31g
 *
 ----------------------------------------------------------------------

 (Enter /apps/gaussian/g09_c01/g09/l101.exe)
 ----------------------------------------------
 Autjob by noodles.sh | Great noodly basis sets
 ----------------------------------------------
 Charge =  1 Multiplicity = 1

 SCF Done:  E(RPBE1PBE) =  -150.205594490     A.U. after   11 cycles
 SCF Done:  E(RPBE1PBE) =  -150.205675251     A.U. after    7 cycles
 SCF Done:  E(RPBE1PBE) =  -150.205675269     A.U. after    5 cycles
 Optimization completed.
    -- Stationary point found.

                         Standard orientation:
 ---------------------------------------------------------------------
 Center     Atomic      Atomic             Coordinates (Angstroms)
 Number     Number       Type             X           Y           Z
 ---------------------------------------------------------------------
      1          6           0        0.000000    0.000000    0.425823
      2          1           0        0.000000    0.000000    1.512498
      3          7           0        0.000000    1.163267   -0.174480
      4          1           0        0.000000    2.015949    0.370720
      5          1           0        0.000000    1.267664   -1.183080
      6          7           0        0.000000   -1.163267   -0.174480
      7          1           0        0.000000   -1.267664   -1.183080
      8          1           0        0.000000   -2.015949    0.370720
 ---------------------------------------------------------------------

 The electronic state is 1-A1.
 Alpha  occ. eigenvalues --  -14.67344 -14.67343 -10.57882  -1.24888  -1.16040
 Alpha  occ. eigenvalues --   -0.91618  -0.83558  -0.80951  -0.74134  -0.67905
 Alpha  occ. eigenvalues --   -0.65376  -0.52241
 Alpha virt. eigenvalues --   -0.21895  -0.12501  -0.10105  -0.09175  -0.03501
 Alpha virt. eigenvalues --   -0.01381   0.10930   0.12363   0.33476   0.34068
 Alpha virt. eigenvalues --    0.34207   0.39593   0.47957   0.51117   0.52460

 Mulliken atomic charges:
              1
     1  C    0.356330
     2  H    0.301348
     3  N   -0.700661
     4  H    0.442858
     5  H    0.428965
     6  N   -0.700661
     7  H    0.428965
     8  H    0.442858
 Sum of Mulliken atomic charges =   1.00000

 Dipole moment (field-independent basis, Debye):
    X=              0.0000    Y=              0.0000    Z=             -0.1980  Tot=              0.1980
 Quadrupole moment (field-independent basis, Debye-Ang):
   XX=            -19.1953   YY=             -4.1599   ZZ=            -10.0291
   XY=              0.0000   XZ=              0.0000   YZ=              0.0000

  Exact polarizability:   9.776   0.000  32.908   0.000   0.000  21.177
 Approx polarizability:  12.555   0.000  46.295   0.000   0.000  27.063

                     1                      2                      3
                    A1                     A2                     A2
 Frequencies --   520.1976               543.6896               599.7014
 Red. masses --     2.0027                 1.1059                 1.1536
 Frc consts  --     0.3193                 0.1926                 0.2444
 IR Inten    --     1.0262                 0.0000                 0.0000
 Raman Activ --     2.1413                 0.0840                 0.3458

                     4                      5                      6
                    B1                     B1                     B2
 Frequencies --   639.4932               724.8012              1047.0319
 Red. masses --     1.1614                 1.6476                 1.1521
 Frc consts  --     0.2798                 0.5100                 0.7442
 IR Inten    --   581.0258                17.0301                 2.0090
 Raman Activ --     0.0306                 1.0913                 0.0593

                     7                      8                      9
                    B1                     A1                     B2
 Frequencies --  1084.8021              1145.3712              1400.0815
 Red. masses --     1.2177                 1.9009                 1.1811
 Frc consts  --     0.8443                 1.4693                 1.3640
 IR Inten    --    18.8461                 7.0174                47.7168
 Raman Activ --     0.2737                10.2334                 4.0154

                    10                     11                     12
                    A1                     B2                     A1
 Frequencies --  1438.6271              1638.8708              1721.3721
 Red. masses --     2.4549                 1.1665                 1.2300
 Frc consts  --     2.9935                 1.8459                 2.1474
 IR Inten    --    11.0878                18.5026                46.5502
 Raman Activ --    12.2593                 3.8675                 2.1299

                    13                     14                     15
                    B2                     A1                     B2
 Frequencies --  1825.1694              3264.4961              3588.0276
 Red. masses --     4.1959                 1.0990                 1.0480
 Frc consts  --     8.2354                 6.9003                 7.9493
 IR Inten    --   432.4793                 6.0619               314.8708
 Raman Activ --     0.3881                55.0642                 0.8095

                    16                     17                     18
                    A1                     B2                     A1
 Frequencies --  3603.7273              3706.8033              3707.9445
 Red. masses --     1.0523                 1.1049                 1.1065
 Frc consts  --     8.0521                 8.9450                 8.9631
 IR Inten    --    46.0644               108.2891               205.2363
 Raman Activ --   129.7000                33.7092                40.5006

 - Thermochemistry -
 -------------------
 Temperature   298.150 Kelvin.  Pressure   1.00000 Atm.
 Atom     1 has atomic number  6 and mass  12.00000

 Molecular mass:    45.04527 amu.
 Principal axes and moments of inertia in atomic units:
                           1         2         3
     Eigenvalues --    30.11146 176.15499 206.26645
           X            0.00000   0.00000   1.00000
           Y            1.00000   0.00000   0.00000
           Z            0.00000   1.00000   0.00000
 This molecule is an asymmetric top.
 Rotational symmetry number  2.
 Rotational temperatures (Kelvin)      2.87644     0.49169     0.41991
 Rotational constants (GHZ):          59.93537    10.24519     8.74956
 Zero-point vibrational energy     192600.0 (Joules/Mol)
                                   46.03251 (Kcal/Mol)
 Warning -- explicit consideration of   3 degrees of freedom as
           vibrations may cause significant error
 Vibrational temperatures:    748.45   782.25   862.84   920.09  1042.83
          (Kelvin)           1506.44  1560.79  1647.93  2014.40  2069.86
                             2357.97  2476.67  2626.01  4696.88  5162.36
                             5184.95  5333.26  5334.90

 Zero-point correction=                           0.073357 (Hartree/Particle)
 Thermal correction to Energy=                    0.077094
 Thermal correction to Enthalpy=                  0.078038
 Thermal correction to Gibbs Free Energy=         0.049479
 Sum of electronic and zero-point Energies=           -150.132318
 Sum of electronic and thermal Energies=              -150.128582
 Sum of electronic and thermal Enthalpies=            -150.127637
 Sum of electronic and thermal Free Energies=         -150.156196

                     E (Thermal)             CV                S
                      KCal/Mol        Cal/Mol-Kelvin    Cal/Mol-Kelvin
 Total                   48.377             12.251             60.107
 Electronic               0.000              0.000              0.000
 Translational            0.889              2.981             37.341
 Rotational               0.889              2.981             20.242
 Vibrational             46.600              6.289              2.524
 Vibration     1          0.875              1.205              0.610
 Vibration     2          0.899              1.154              0.557
 Vibration     3          0.958              1.032              0.450

 Normal termination of Gaussian 09 at Thu Feb 26 00:24:10 2015.
