 Gaussian 09, Revision C.01,
 Gaussian 09:  EM64L-G09RevC.01 23-Sep-2011

 ----------------------------------------------------------------------
 #p opt(VeryTight,CalcAll,Raman) Integral(Grid=UltraFine) PBE1PBE/AUG-c
 c-pVDZ
 ----------------------------------------------------------------------

 (Enter /apps/gaussian/g09_c01/g09/l101.exe)
 ----------------------------------------------
 Autjob by noodles.sh | Great noodly basis sets
 ----------------------------------------------
 Charge =  1 Multiplicity = 1

 SCF Done:  E(RPBE1PBE) =  -150.233698010     A.U. after    9 cycles
 SCF Done:  E(RPBE1PBE) =  -150.233793200     A.U. after    7 cycles
 SCF Done:  E(RPBE1PBE) =  -150.233793212     A.U. after    5 cycles
 Optimization completed.
    -- Stationary point found.

                         Standard orientation:
 ---------------------------------------------------------------------
 Center     Atomic      Atomic             Coordinates (Angstroms)
 Number     Number       Type             X           Y           Z
 ---------------------------------------------------------------------
      1          6           0        0.000000    0.000000    0.427297
      2          1           0        0.000000    0.000000    1.518547
      3          7           0        0.000000    1.163258   -0.175527
      4          1           0        0.000000    2.014061    0.371806
      5          1           0        0.000000    1.261999   -1.184283
      6          7           0        0.000000   -1.163258   -0.175527
      7          1           0        0.000000   -1.261999   -1.184283
      8          1           0        0.000000   -2.014061    0.371806
 ---------------------------------------------------------------------

 The electronic state is 1-A1.
 Alpha  occ. eigenvalues --  -14.66858 -14.66857 -10.57747  -1.25125  -1.16242
 Alpha  occ. eigenvalues --   -0.91606  -0.83567  -0.80993  -0.74085  -0.67786
 Alpha  occ. eigenvalues --   -0.65713  -0.52680
 Alpha virt. eigenvalues --   -0.23071  -0.17149  -0.14673  -0.14222  -0.09242
 Alpha virt. eigenvalues --   -0.09197  -0.09056  -0.07047  -0.05488  -0.04695
 Alpha virt. eigenvalues --   -0.03164  -0.02749  -0.01483  -0.00655  -0.00550

 Mulliken atomic charges:
              1
     1  C    1.141066
     2  H   -0.172571
     3  N   -0.028657
     4  H    0.073718
     5  H   -0.029308
     6  N   -0.028657
     7  H   -0.029308
     8  H    0.073718
 Sum of Mulliken atomic charges =   1.00000

 Dipole moment (field-independent basis, Debye):
    X=              0.0000    Y=              0.0000    Z=             -0.2064  Tot=              0.2064
 Quadrupole moment (field-independent basis, Debye-Ang):
   XX=            -19.2079   YY=             -4.4588   ZZ=            -10.2195
   XY=              0.0000   XZ=              0.0000   YZ=              0.0000

  Exact polarizability:  18.220   0.000  37.038   0.000   0.000  24.801
 Approx polarizability:  23.374   0.000  51.288   0.000   0.000  33.098

                     1                      2                      3
                    A1                     A2                     A2
 Frequencies --   513.5907               544.6483               609.9012
 Red. masses --     1.9909                 1.1032                 1.1557
 Frc consts  --     0.3094                 0.1928                 0.2533
 IR Inten    --     0.5299                 0.0000                 0.0000
 Raman Activ --     1.8852                 0.0015                 0.2188

                     4                      5                      6
                    B1                     B1                     B2
 Frequencies --   627.0321               722.6587              1032.4131
 Red. masses --     1.1610                 1.6320                 1.1507
 Frc consts  --     0.2690                 0.5022                 0.7227
 IR Inten    --   417.0647                 8.4615                 0.8271
 Raman Activ --     0.0018                 0.0513                 0.1097

                     7                      8                      9
                    B1                     A1                     B2
 Frequencies --  1082.8988              1133.1920              1379.6264
 Red. masses --     1.2256                 1.8854                 1.1801
 Frc consts  --     0.8468                 1.4265                 1.3234
 IR Inten    --    21.0190                 4.1096                49.4365
 Raman Activ --     0.1318                12.9534                 3.1699

                    10                     11                     12
                    A1                     B2                     A1
 Frequencies --  1416.6778              1605.6727              1687.6316
 Red. masses --     2.4264                 1.1606                 1.2482
 Frc consts  --     2.8691                 1.7630                 2.0946
 IR Inten    --     6.0907                13.6801                40.3669
 Raman Activ --    18.2815                 3.5006                 2.0019

                    13                     14                     15
                    B2                     A1                     B2
 Frequencies --  1798.3300              3233.0482              3569.9189
 Red. masses --     4.3005                 1.0993                 1.0478
 Frc consts  --     8.1943                 6.7700                 7.8678
 IR Inten    --   426.5786                 8.4758               319.5631
 Raman Activ --     0.1913                54.8049                 0.8347

                    16                     17                     18
                    A1                     B2                     A1
 Frequencies --  3584.4155              3700.6361              3701.5331
 Red. masses --     1.0522                 1.1050                 1.1065
 Frc consts  --     7.9652                 8.9163                 8.9323
 IR Inten    --    43.1785                96.3408               193.6624
 Raman Activ --   160.9500                26.8192                35.0245

 - Thermochemistry -
 -------------------
 Temperature   298.150 Kelvin.  Pressure   1.00000 Atm.
 Atom     1 has atomic number  6 and mass  12.00000

 Molecular mass:    45.04527 amu.
 Principal axes and moments of inertia in atomic units:
                           1         2         3
     Eigenvalues --    30.29435 175.99499 206.28933
           X            0.00000   0.00000   1.00000
           Y            1.00000   0.00000   0.00000
           Z            0.00000   1.00000   0.00000
 This molecule is an asymmetric top.
 Rotational symmetry number  2.
 Rotational temperatures (Kelvin)      2.85908     0.49214     0.41987
 Rotational constants (GHZ):          59.57353    10.25450     8.74859
 Zero-point vibrational energy     191066.5 (Joules/Mol)
                                   45.66599 (Kcal/Mol)
 Warning -- explicit consideration of   3 degrees of freedom as
           vibrations may cause significant error
 Vibrational temperatures:    738.94   783.63   877.51   902.16  1039.74
          (Kelvin)           1485.41  1558.05  1630.41  1984.97  2038.28
                             2310.20  2428.12  2587.39  4651.63  5136.31
                             5157.17  5324.38  5325.67

 Zero-point correction=                           0.072773 (Hartree/Particle)
 Thermal correction to Energy=                    0.076520
 Thermal correction to Enthalpy=                  0.077464
 Thermal correction to Gibbs Free Energy=         0.048889
 Sum of electronic and zero-point Energies=           -150.161020
 Sum of electronic and thermal Energies=              -150.157273
 Sum of electronic and thermal Enthalpies=            -150.156329
 Sum of electronic and thermal Free Energies=         -150.184905

                     E (Thermal)             CV                S
                      KCal/Mol        Cal/Mol-Kelvin    Cal/Mol-Kelvin
 Total                   48.017             12.325             60.143
 Electronic               0.000              0.000              0.000
 Translational            0.889              2.981             37.341
 Rotational               0.889              2.981             20.247
 Vibrational             46.240              6.363              2.555
 Vibration     1          0.869              1.220              0.625
 Vibration     2          0.900              1.151              0.555
 Vibration     3          0.969              1.011              0.433

 Normal termination of Gaussian 09 at Thu Feb 26 00:29:44 2015.
