 Gaussian 09, Revision C.01,
 Gaussian 09:  EM64L-G09RevC.01 23-Sep-2011

 ----------------------------------------------------------------------
 #p opt(VeryTight,CalcAll,Raman) Integral(Grid=UltraFine) PBEPBE/6-31g*
 ----------------------------------------------------------------------

 (Enter /apps/gaussian/g09_c01/g09/l101.exe)
 ----------------------------------------------
 Autjob by noodles.sh | Great noodly basis sets
 ----------------------------------------------
 Charge =  1 Multiplicity = 1

 SCF Done:  E(RPBE-PBE) =  -150.195611809     A.U. after   11 cycles
 SCF Done:  E(RPBE-PBE) =  -150.195903961     A.U. after    8 cycles
 SCF Done:  E(RPBE-PBE) =  -150.195904098     A.U. after    6 cycles
 Optimization completed.
    -- Stationary point found.

                         Standard orientation:
 ---------------------------------------------------------------------
 Center     Atomic      Atomic             Coordinates (Angstroms)
 Number     Number       Type             X           Y           Z
 ---------------------------------------------------------------------
      1          6           0        0.000000    0.000000    0.429119
      2          1           0        0.000000    0.000000    1.523696
      3          7           0        0.000000    1.173869   -0.175985
      4          1           0        0.000000    2.032503    0.375726
      5          1           0        0.000000    1.281588   -1.193039
      6          7           0        0.000000   -1.173869   -0.175985
      7          1           0        0.000000   -1.281588   -1.193039
      8          1           0        0.000000   -2.032503    0.375726
 ---------------------------------------------------------------------

 The electronic state is 1-A1.
 Alpha  occ. eigenvalues --  -14.27945 -14.27945 -10.23550  -1.13061  -1.05176
 Alpha  occ. eigenvalues --   -0.83145  -0.75781  -0.73549  -0.67374  -0.61494
 Alpha  occ. eigenvalues --   -0.58734  -0.46947
 Alpha virt. eigenvalues --   -0.26175  -0.16610  -0.14225  -0.13599  -0.08187
 Alpha virt. eigenvalues --   -0.06046   0.05426   0.07569   0.27833   0.28167
 Alpha virt. eigenvalues --    0.28733   0.34639   0.41131   0.44469   0.45900

 Mulliken atomic charges:
              1
     1  C    0.325821
     2  H    0.279044
     3  N   -0.634085
     4  H    0.423556
     5  H    0.408096
     6  N   -0.634085
     7  H    0.408096
     8  H    0.423556
 Sum of Mulliken atomic charges =   1.00000

 Dipole moment (field-independent basis, Debye):
    X=              0.0000    Y=              0.0000    Z=             -0.2860  Tot=              0.2860
 Quadrupole moment (field-independent basis, Debye-Ang):
   XX=            -19.1861   YY=             -3.8637   ZZ=            -10.1317
   XY=              0.0000   XZ=              0.0000   YZ=              0.0000

  Exact polarizability:   9.867   0.000  34.131   0.000   0.000  22.065
 Approx polarizability:  14.140   0.000  65.657   0.000   0.000  33.812

                     1                      2                      3
                    A1                     A2                     A2
 Frequencies --   503.5434               507.7902               568.8788
 Red. masses --     2.0034                 1.1714                 1.0900
 Frc consts  --     0.2993                 0.1780                 0.2078
 IR Inten    --     1.3571                 0.0000                 0.0000
 Raman Activ --     2.1744                 0.0816                 0.3376

                     4                      5                      6
                    B1                     B1                     B2
 Frequencies --   593.7082               697.3716              1012.1360
 Red. masses --     1.2174                 1.5776                 1.1534
 Frc consts  --     0.2528                 0.4520                 0.6962
 IR Inten    --   544.4277                 0.5404                 1.9532
 Raman Activ --     0.0001                 1.3928                 0.1068

                     7                      8                      9
                    B1                     A1                     B2
 Frequencies --  1027.3464              1104.2647              1360.1166
 Red. masses --     1.1993                 1.9214                 1.1756
 Frc consts  --     0.7458                 1.3804                 1.2813
 IR Inten    --    25.3606                 7.1935                37.6605
 Raman Activ --     0.2550                10.8479                 4.6141

                    10                     11                     12
                    A1                     B2                     A1
 Frequencies --  1382.8478              1588.0150              1664.9185
 Red. masses --     2.4880                 1.1645                 1.2168
 Frc consts  --     2.8032                 1.7302                 1.9873
 IR Inten    --     8.3683                20.5064                40.5901
 Raman Activ --    11.9415                 4.6566                 2.4877

                    13                     14                     15
                    B2                     A1                     B2
 Frequencies --  1761.8269              3172.2418              3476.3492
 Red. masses --     4.2858                 1.0976                 1.0480
 Frc consts  --     7.8380                 6.5077                 7.4622
 IR Inten    --   357.6868                 5.6542               277.6476
 Raman Activ --     0.2923                59.0236                 1.0701

                    16                     17                     18
                    A1                     B2                     A1
 Frequencies --  3490.6687              3590.6978              3591.4250
 Red. masses --     1.0519                 1.1041                 1.1054
 Frc consts  --     7.5518                 8.3871                 8.4002
 IR Inten    --    41.2056               104.4759               172.7897
 Raman Activ --   138.4769                36.8956                43.9998

 - Thermochemistry -
 -------------------
 Temperature   298.150 Kelvin.  Pressure   1.00000 Atm.
 Atom     1 has atomic number  6 and mass  12.00000

 Molecular mass:    45.04527 amu.
 Principal axes and moments of inertia in atomic units:
                           1         2         3
     Eigenvalues --    30.60454 179.37119 209.97574
           X            0.00000   0.00000   1.00000
           Y            1.00000   0.00000   0.00000
           Z            0.00000   1.00000   0.00000
 This molecule is an asymmetric top.
 Rotational symmetry number  2.
 Rotational temperatures (Kelvin)      2.83010     0.48287     0.41249
 Rotational constants (GHZ):          58.96972    10.06149     8.59500
 Zero-point vibrational energy     185984.3 (Joules/Mol)
                                   44.45131 (Kcal/Mol)
 Warning -- explicit consideration of   4 degrees of freedom as
           vibrations may cause significant error
 Vibrational temperatures:    724.49   730.60   818.49   854.21  1003.36
          (Kelvin)           1456.24  1478.12  1588.79  1956.90  1989.61
                             2284.80  2395.44  2534.87  4564.14  5001.68
                             5022.29  5166.21  5167.25

 Zero-point correction=                           0.070838 (Hartree/Particle)
 Thermal correction to Energy=                    0.074682
 Thermal correction to Enthalpy=                  0.075626
 Thermal correction to Gibbs Free Energy=         0.046885
 Sum of electronic and zero-point Energies=           -150.125066
 Sum of electronic and thermal Energies=              -150.121222
 Sum of electronic and thermal Enthalpies=            -150.120278
 Sum of electronic and thermal Free Energies=         -150.149019

                     E (Thermal)             CV                S
                      KCal/Mol        Cal/Mol-Kelvin    Cal/Mol-Kelvin
 Total                   46.864             12.762             60.492
 Electronic               0.000              0.000              0.000
 Translational            0.889              2.981             37.341
 Rotational               0.889              2.981             20.294
 Vibrational             45.086              6.801              2.857
 Vibration     1          0.859              1.242              0.649
 Vibration     2          0.863              1.233              0.639
 Vibration     3          0.925              1.099              0.506
 Vibration     4          0.951              1.045              0.461

 Normal termination of Gaussian 09 at Thu Feb 26 00:33:40 2015.
