 Gaussian 09, Revision C.01,
 Gaussian 09:  EM64L-G09RevC.01 23-Sep-2011

 ----------------------------------------------------------------------
 #p opt(VeryTight,CalcAll,Raman) Integral(Grid=UltraFine) CAM-b3lyp/AUG
 -cc-pVQZ
 ----------------------------------------------------------------------

 (Enter /apps/gaussian/g09_c01/g09/l101.exe)
 ----------------------------------------------
 Autjob by noodles.sh | Great noodly basis sets
 ----------------------------------------------
 Charge =  1 Multiplicity = 1

 SCF Done:  E(RCAM-B3LYP) =  -150.384460488     A.U. after    9 cycles
 SCF Done:  E(RCAM-B3LYP) =  -150.384923648     A.U. after    7 cycles
 SCF Done:  E(RCAM-B3LYP) =  -150.384924046     A.U. after    5 cycles
 SCF Done:  E(RCAM-B3LYP) =  -150.384924046     A.U. after    2 cycles
 Optimization completed.
    -- Stationary point found.

                         Standard orientation:
 ---------------------------------------------------------------------
 Center     Atomic      Atomic             Coordinates (Angstroms)
 Number     Number       Type             X           Y           Z
 ---------------------------------------------------------------------
      1          6           0        0.000000    0.000000    0.426099
      2          1           0        0.000000    0.000000    1.508676
      3          7           0        0.000000    1.156536   -0.174364
      4          1           0        0.000000    2.006437    0.367385
      5          1           0        0.000000    1.253049   -1.179476
      6          7           0        0.000000   -1.156536   -0.174364
      7          1           0        0.000000   -1.253049   -1.179476
      8          1           0        0.000000   -2.006437    0.367385
 ---------------------------------------------------------------------

 The electronic state is 1-A1.
 Alpha  occ. eigenvalues --  -14.65787 -14.65785 -10.59087  -1.30900  -1.21853
 Alpha  occ. eigenvalues --   -0.97410  -0.89663  -0.86784  -0.79683  -0.73544
 Alpha  occ. eigenvalues --   -0.71844  -0.58062
 Alpha virt. eigenvalues --   -0.18693  -0.15018  -0.12639  -0.12215  -0.08773
 Alpha virt. eigenvalues --   -0.07800  -0.07644  -0.06271  -0.04963  -0.04504
 Alpha virt. eigenvalues --   -0.04155  -0.03432  -0.03369  -0.01619  -0.01574

 Mulliken atomic charges:
              1
     1  C    0.096153
     2  H    0.577979
     3  N   -0.473722
     4  H    0.286357
     5  H    0.350298
     6  N   -0.473722
     7  H    0.350298
     8  H    0.286357
 Sum of Mulliken atomic charges =   1.00000

 Dipole moment (field-independent basis, Debye):
    X=              0.0000    Y=              0.0000    Z=             -0.1824  Tot=              0.1824
 Quadrupole moment (field-independent basis, Debye-Ang):
   XX=            -19.1759   YY=             -4.7942   ZZ=            -10.4074
   XY=              0.0000   XZ=              0.0000   YZ=              0.0000

  Exact polarizability:  18.134   0.000  36.728   0.000   0.000  24.700
 Approx polarizability:  20.903   0.000  40.827   0.000   0.000  28.603

                     1                      2                      3
                    A1                     A2                     A2
 Frequencies --   524.2412               556.5379               622.1531
 Red. masses --     1.9853                 1.0505                 1.2203
 Frc consts  --     0.3215                 0.1917                 0.2783
 IR Inten    --     0.4523                 0.0000                 0.0000
 Raman Activ --     1.9106                 0.0009                 0.2249

                     4                      5                      6
                    B1                     B1                     B2
 Frequencies --   649.2073               732.7438              1046.5934
 Red. masses --     1.1177                 1.6915                 1.1526
 Frc consts  --     0.2776                 0.5351                 0.7439
 IR Inten    --   404.7726                35.6188                 0.4853
 Raman Activ --     0.0082                 0.0493                 0.0808

                     7                      8                      9
                    B1                     A1                     B2
 Frequencies --  1101.8428              1139.3538              1390.5218
 Red. masses --     1.2426                 1.9251                 1.2139
 Frc consts  --     0.8888                 1.4724                 1.3829
 IR Inten    --    14.3102                 3.2912                65.6781
 Raman Activ --     0.1116                13.6233                 3.1813

                    10                     11                     12
                    A1                     B2                     A1
 Frequencies --  1430.5653              1622.1334              1700.7414
 Red. masses --     2.4236                 1.1791                 1.2357
 Frc consts  --     2.9223                 1.8280                 2.1059
 IR Inten    --     8.1297                 9.9893                43.1044
 Raman Activ --    17.6144                 2.8763                 1.8833

                    13                     14                     15
                    B2                     A1                     B2
 Frequencies --  1786.4436              3215.8622              3554.9780
 Red. masses --     3.7087                 1.0990                 1.0466
 Frc consts  --     6.9735                 6.6965                 7.7929
 IR Inten    --   462.1380                 8.8155               325.2499
 Raman Activ --     0.4400                52.2201                 0.7350

                    16                     17                     18
                    A1                     B2                     A1
 Frequencies --  3570.4945              3672.0465              3673.3588
 Red. masses --     1.0514                 1.1050                 1.1066
 Frc consts  --     7.8972                 8.7788                 8.7977
 IR Inten    --    47.8981               100.8642               198.7234
 Raman Activ --   155.6708                25.5309                34.8398

 - Thermochemistry -
 -------------------
 Temperature   298.150 Kelvin.  Pressure   1.00000 Atm.
 Atom     1 has atomic number  6 and mass  12.00000

 Molecular mass:    45.04527 amu.
 Principal axes and moments of inertia in atomic units:
                           1         2         3
     Eigenvalues --    29.99685 174.05280 204.04965
           X            0.00000   0.00000   1.00000
           Y            1.00000   0.00000   0.00000
           Z            0.00000   1.00000   0.00000
 This molecule is an asymmetric top.
 Rotational symmetry number  2.
 Rotational temperatures (Kelvin)      2.88743     0.49763     0.42447
 Rotational constants (GHZ):          60.16435    10.36893     8.84462
 Zero-point vibrational energy     191341.6 (Joules/Mol)
                                   45.73174 (Kcal/Mol)
 Warning -- explicit consideration of   2 degrees of freedom as
           vibrations may cause significant error
 Vibrational temperatures:    754.27   800.73   895.14   934.06  1054.25
          (Kelvin)           1505.81  1585.30  1639.27  2000.65  2058.26
                             2333.89  2446.98  2570.29  4626.90  5114.81
                             5137.14  5283.25  5285.14

 Zero-point correction=                           0.072878 (Hartree/Particle)
 Thermal correction to Energy=                    0.076584
 Thermal correction to Enthalpy=                  0.077528
 Thermal correction to Gibbs Free Energy=         0.049027
 Sum of electronic and zero-point Energies=           -150.312046
 Sum of electronic and thermal Energies=              -150.308340
 Sum of electronic and thermal Enthalpies=            -150.307396
 Sum of electronic and thermal Free Energies=         -150.335897

                     E (Thermal)             CV                S
                      KCal/Mol        Cal/Mol-Kelvin    Cal/Mol-Kelvin
 Total                   48.057             12.138             59.985
 Electronic               0.000              0.000              0.000
 Translational            0.889              2.981             37.341
 Rotational               0.889              2.981             20.216
 Vibrational             46.280              6.176              2.428
 Vibration     1          0.879              1.196              0.600
 Vibration     2          0.912              1.125              0.531

 Normal termination of Gaussian 09 at Thu Feb 26 07:32:20 2015.
