 Gaussian 09, Revision C.01,
 Gaussian 09:  EM64L-G09RevC.01 23-Sep-2011

 ----------------------------------------------------------------------
 #p opt(VeryTight,CalcAll,Raman) Integral(Grid=UltraFine) CAM-b3lyp/6-3
 1g*
 ----------------------------------------------------------------------

 (Enter /apps/gaussian/g09_c01/g09/l101.exe)
 ----------------------------------------------
 Autjob by noodles.sh | Great noodly basis sets
 ----------------------------------------------
 Charge =  1 Multiplicity = 1

 SCF Done:  E(RCAM-B3LYP) =  -150.304329386     A.U. after   11 cycles
 SCF Done:  E(RCAM-B3LYP) =  -150.304396094     A.U. after    8 cycles
 SCF Done:  E(RCAM-B3LYP) =  -150.304396109     A.U. after    5 cycles
 Optimization completed.
    -- Stationary point found.

                         Standard orientation:
 ---------------------------------------------------------------------
 Center     Atomic      Atomic             Coordinates (Angstroms)
 Number     Number       Type             X           Y           Z
 ---------------------------------------------------------------------
      1          6           0        0.000000    0.000000    0.427638
      2          1           0        0.000000    0.000000    1.513810
      3          7           0        0.000000    1.162657   -0.174774
      4          1           0        0.000000    2.017926    0.368364
      5          1           0        0.000000    1.263473   -1.184763
      6          7           0        0.000000   -1.162657   -0.174774
      7          1           0        0.000000   -1.263473   -1.184763
      8          1           0        0.000000   -2.017926    0.368364
 ---------------------------------------------------------------------

 The electronic state is 1-A1.
 Alpha  occ. eigenvalues --  -14.68217 -14.68215 -10.60899  -1.30371  -1.21402
 Alpha  occ. eigenvalues --   -0.97136  -0.89160  -0.86300  -0.79366  -0.73348
 Alpha  occ. eigenvalues --   -0.70955  -0.57191
 Alpha virt. eigenvalues --   -0.17210  -0.09013  -0.06520  -0.05579   0.00178
 Alpha virt. eigenvalues --    0.02399   0.15371   0.16452   0.37029   0.38481
 Alpha virt. eigenvalues --    0.38638   0.44089   0.52362   0.55236   0.57085

 Mulliken atomic charges:
              1
     1  C    0.367704
     2  H    0.280147
     3  N   -0.662850
     4  H    0.426723
     5  H    0.412202
     6  N   -0.662850
     7  H    0.412202
     8  H    0.426723
 Sum of Mulliken atomic charges =   1.00000

 Dipole moment (field-independent basis, Debye):
    X=              0.0000    Y=              0.0000    Z=             -0.1726  Tot=              0.1726
 Quadrupole moment (field-independent basis, Debye-Ang):
   XX=            -19.1745   YY=             -4.3787   ZZ=            -10.1611
   XY=              0.0000   XZ=              0.0000   YZ=              0.0000

  Exact polarizability:   9.635   0.000  33.014   0.000   0.000  21.307
 Approx polarizability:  11.351   0.000  37.183   0.000   0.000  23.648

                     1                      2                      3
                    A1                     A2                     A2
 Frequencies --   521.5866               549.1874               605.3833
 Red. masses --     1.9973                 1.0651                 1.2018
 Frc consts  --     0.3202                 0.1893                 0.2595
 IR Inten    --     0.7793                 0.0000                 0.0000
 Raman Activ --     2.1192                 0.2063                 0.2193

                     4                      5                      6
                    B1                     B1                     B2
 Frequencies --   647.9419               726.7019              1047.9119
 Red. masses --     1.1346                 1.6795                 1.1535
 Frc consts  --     0.2806                 0.5226                 0.7463
 IR Inten    --   560.3646                37.4817                 1.6075
 Raman Activ --     0.0584                 1.2363                 0.0606

                     7                      8                      9
                    B1                     A1                     B2
 Frequencies --  1094.7353              1144.2722              1400.4821
 Red. masses --     1.2292                 1.8990                 1.1913
 Frc consts  --     0.8679                 1.4650                 1.3766
 IR Inten    --    14.0979                 6.1335                54.3912
 Raman Activ --     0.3101                10.4151                 4.1628

                    10                     11                     12
                    A1                     B2                     A1
 Frequencies --  1440.0194              1637.1309              1721.7185
 Red. masses --     2.4342                 1.1753                 1.2374
 Frc consts  --     2.9740                 1.8559                 2.1611
 IR Inten    --    11.2335                15.7477                49.1310
 Raman Activ --    12.6431                 3.7650                 2.2638

                    13                     14                     15
                    B2                     A1                     B2
 Frequencies --  1819.8955              3263.4475              3572.3342
 Red. masses --     3.9560                 1.0993                 1.0477
 Frc consts  --     7.7196                 6.8982                 7.8773
 IR Inten    --   458.2718                 6.5732               320.0140
 Raman Activ --     0.6880                53.6317                 0.7418

                    16                     17                     18
                    A1                     B2                     A1
 Frequencies --  3588.7694              3685.7138              3687.1623
 Red. masses --     1.0523                 1.1051                 1.1067
 Frc consts  --     7.9849                 8.8452                 8.8651
 IR Inten    --    47.3140               106.7545               200.5834
 Raman Activ --   130.2943                34.0574                41.8652

 - Thermochemistry -
 -------------------
 Temperature   298.150 Kelvin.  Pressure   1.00000 Atm.
 Atom     1 has atomic number  6 and mass  12.00000

 Molecular mass:    45.04527 amu.
 Principal axes and moments of inertia in atomic units:
                           1         2         3
     Eigenvalues --    30.21844 175.99416 206.21260
           X            0.00000   0.00000   1.00000
           Y            1.00000   0.00000   0.00000
           Z            0.00000   1.00000   0.00000
 This molecule is an asymmetric top.
 Rotational symmetry number  2.
 Rotational temperatures (Kelvin)      2.86626     0.49214     0.42002
 Rotational constants (GHZ):          59.72317    10.25455     8.75185
 Zero-point vibrational energy     192326.0 (Joules/Mol)
                                   45.96701 (Kcal/Mol)
 Warning -- explicit consideration of   3 degrees of freedom as
           vibrations may cause significant error
 Vibrational temperatures:    750.45   790.16   871.01   932.24  1045.56
          (Kelvin)           1507.71  1575.08  1646.35  2014.98  2071.86
                             2355.46  2477.17  2618.42  4695.37  5139.79
                             5163.43  5302.91  5305.00

 Zero-point correction=                           0.073253 (Hartree/Particle)
 Thermal correction to Energy=                    0.076976
 Thermal correction to Enthalpy=                  0.077920
 Thermal correction to Gibbs Free Energy=         0.049380
 Sum of electronic and zero-point Energies=           -150.231143
 Sum of electronic and thermal Energies=              -150.227420
 Sum of electronic and thermal Enthalpies=            -150.226476
 Sum of electronic and thermal Free Energies=         -150.255016

                     E (Thermal)             CV                S
                      KCal/Mol        Cal/Mol-Kelvin    Cal/Mol-Kelvin
 Total                   48.303             12.194             60.068
 Electronic               0.000              0.000              0.000
 Translational            0.889              2.981             37.341
 Rotational               0.889              2.981             20.244
 Vibrational             46.526              6.233              2.483
 Vibration     1          0.877              1.202              0.606
 Vibration     2          0.904              1.141              0.546
 Vibration     3          0.964              1.020              0.440

 Normal termination of Gaussian 09 at Thu Feb 26 00:10:09 2015.
