 Gaussian 09, Revision C.01,
 Gaussian 09:  EM64L-G09RevC.01 23-Sep-2011

 ----------------------------------------------------------------------
 #p opt(VeryTight,CalcAll,Raman) Integral(Grid=UltraFine) PBE1PBE/AUG-c
 c-pVTZ
 ----------------------------------------------------------------------

 (Enter /apps/gaussian/g09_c01/g09/l101.exe)
 ----------------------------------------------
 Autjob by noodles.sh | Great noodly basis sets
 ----------------------------------------------
 Charge =  1 Multiplicity = 1

 SCF Done:  E(RPBE1PBE) =  -150.270461484     A.U. after    9 cycles
 SCF Done:  E(RPBE1PBE) =  -150.270845556     A.U. after    7 cycles
 SCF Done:  E(RPBE1PBE) =  -150.270845814     A.U. after    4 cycles
 SCF Done:  E(RPBE1PBE) =  -150.270845814     A.U. after    3 cycles
 Optimization completed.
    -- Stationary point found.

                         Standard orientation:
 ---------------------------------------------------------------------
 Center     Atomic      Atomic             Coordinates (Angstroms)
 Number     Number       Type             X           Y           Z
 ---------------------------------------------------------------------
      1          6           0        0.000000    0.000000    0.424476
      2          1           0        0.000000    0.000000    1.509308
      3          7           0        0.000000    1.158737   -0.174340
      4          1           0        0.000000    2.006072    0.371448
      5          1           0        0.000000    1.259039   -1.179148
      6          7           0        0.000000   -1.158737   -0.174340
      7          1           0        0.000000   -1.259039   -1.179148
      8          1           0        0.000000   -2.006072    0.371448
 ---------------------------------------------------------------------

 The electronic state is 1-A1.
 Alpha  occ. eigenvalues --  -14.65631 -14.65630 -10.56606  -1.25192  -1.16283
 Alpha  occ. eigenvalues --   -0.91672  -0.83792  -0.81157  -0.74206  -0.67869
 Alpha  occ. eigenvalues --   -0.66019  -0.52902
 Alpha virt. eigenvalues --   -0.22970  -0.17107  -0.14640  -0.14148  -0.09689
 Alpha virt. eigenvalues --   -0.09211  -0.09068  -0.07703  -0.05705  -0.05469
 Alpha virt. eigenvalues --   -0.04465  -0.03822  -0.03778  -0.01916  -0.01844

 Mulliken atomic charges:
              1
     1  C    0.072848
     2  H    0.617114
     3  N   -0.103212
     4  H    0.109585
     5  H    0.148646
     6  N   -0.103212
     7  H    0.148646
     8  H    0.109585
 Sum of Mulliken atomic charges =   1.00000

 Dipole moment (field-independent basis, Debye):
    X=              0.0000    Y=              0.0000    Z=             -0.2142  Tot=              0.2142
 Quadrupole moment (field-independent basis, Debye-Ang):
   XX=            -19.0659   YY=             -4.5032   ZZ=            -10.2394
   XY=              0.0000   XZ=              0.0000   YZ=              0.0000

  Exact polarizability:  18.056   0.000  36.679   0.000   0.000  24.670
 Approx polarizability:  23.246   0.000  50.572   0.000   0.000  32.862

                     1                      2                      3
                    A1                     A2                     A2
 Frequencies --   518.2432               550.0291               605.0595
 Red. masses --     1.9829                 1.1029                 1.1563
 Frc consts  --     0.3138                 0.1966                 0.2494
 IR Inten    --     0.5812                 0.0000                 0.0000
 Raman Activ --     1.8695                 0.0007                 0.1620

                     4                      5                      6
                    B1                     B1                     B2
 Frequencies --   628.1986               726.4913              1036.5605
 Red. masses --     1.1544                 1.6420                 1.1502
 Frc consts  --     0.2684                 0.5106                 0.7281
 IR Inten    --   415.1094                10.6741                 0.7757
 Raman Activ --     0.0019                 0.0549                 0.0865

                     7                      8                      9
                    B1                     A1                     B2
 Frequencies --  1087.5547              1135.5038              1384.6247
 Red. masses --     1.2285                 1.9179                 1.1940
 Frc consts  --     0.8561                 1.4570                 1.3487
 IR Inten    --    18.0216                 3.7690                53.4855
 Raman Activ --     0.1098                13.1760                 3.1376

                    10                     11                     12
                    A1                     B2                     A1
 Frequencies --  1422.6428              1616.6489              1693.3716
 Red. masses --     2.4447                 1.1624                 1.2353
 Frc consts  --     2.9152                 1.7899                 2.0869
 IR Inten    --     7.2012                13.7142                40.4262
 Raman Activ --    17.6666                 3.2538                 1.9296

                    13                     14                     15
                    B2                     A1                     B2
 Frequencies --  1790.8981              3214.3570              3571.1343
 Red. masses --     4.1326                 1.0987                 1.0468
 Frc consts  --     7.8093                 6.6881                 7.8654
 IR Inten    --   430.0220                 8.1038               314.6770
 Raman Activ --     0.2212                53.7681                 0.8469

                    16                     17                     18
                    A1                     B2                     A1
 Frequencies --  3585.9244              3692.9525              3693.7782
 Red. masses --     1.0513                 1.1047                 1.1061
 Frc consts  --     7.9648                 8.8764                 8.8921
 IR Inten    --    45.8562                99.6590               194.5488
 Raman Activ --   158.1164                26.1527                34.7633

 - Thermochemistry -
 -------------------
 Temperature   298.150 Kelvin.  Pressure   1.00000 Atm.
 Atom     1 has atomic number  6 and mass  12.00000

 Molecular mass:    45.04527 amu.
 Principal axes and moments of inertia in atomic units:
                           1         2         3
     Eigenvalues --    29.95991 174.66019 204.62011
           X            0.00000   0.00000   1.00000
           Y            1.00000   0.00000   0.00000
           Z            0.00000   1.00000   0.00000
 This molecule is an asymmetric top.
 Rotational symmetry number  2.
 Rotational temperatures (Kelvin)      2.89099     0.49590     0.42329
 Rotational constants (GHZ):          60.23853    10.33287     8.81996
 Zero-point vibrational energy     191127.2 (Joules/Mol)
                                   45.68050 (Kcal/Mol)
 Warning -- explicit consideration of   3 degrees of freedom as
           vibrations may cause significant error
 Vibrational temperatures:    745.64   791.37   870.54   903.84  1045.26
          (Kelvin)           1491.38  1564.75  1633.73  1992.16  2046.86
                             2325.99  2436.38  2576.70  4624.74  5138.06
                             5159.34  5313.33  5314.52

 Zero-point correction=                           0.072797 (Hartree/Particle)
 Thermal correction to Energy=                    0.076536
 Thermal correction to Enthalpy=                  0.077480
 Thermal correction to Gibbs Free Energy=         0.048928
 Sum of electronic and zero-point Energies=           -150.198049
 Sum of electronic and thermal Energies=              -150.194310
 Sum of electronic and thermal Enthalpies=            -150.193366
 Sum of electronic and thermal Free Energies=         -150.221918

                     E (Thermal)             CV                S
                      KCal/Mol        Cal/Mol-Kelvin    Cal/Mol-Kelvin
 Total                   48.027             12.287             60.092
 Electronic               0.000              0.000              0.000
 Translational            0.889              2.981             37.341
 Rotational               0.889              2.981             20.221
 Vibrational             46.249              6.326              2.530
 Vibration     1          0.873              1.210              0.614
 Vibration     2          0.905              1.140              0.544
 Vibration     3          0.964              1.021              0.441

 Normal termination of Gaussian 09 at Thu Feb 26 00:51:06 2015.
