 Gaussian 09, Revision C.01,
 Gaussian 09:  EM64L-G09RevC.01 23-Sep-2011

 ----------------------------------------------------------------------
 #p opt(VeryTight,CalcAll,Raman) Integral(Grid=UltraFine) b3lyp/AUG-cc-
 pVTZ
 ----------------------------------------------------------------------

 (Enter /apps/gaussian/g09_c01/g09/l101.exe)
 ----------------------------------------------
 Autjob by noodles.sh | Great noodly basis sets
 ----------------------------------------------
 Charge =  1 Multiplicity = 1

 SCF Done:  E(RB3LYP) =  -150.450223931     A.U. after    9 cycles
 SCF Done:  E(RB3LYP) =  -150.450406373     A.U. after    7 cycles
 SCF Done:  E(RB3LYP) =  -150.450406421     A.U. after    5 cycles
 Optimization completed.
    -- Stationary point found.

                         Standard orientation:
 ---------------------------------------------------------------------
 Center     Atomic      Atomic             Coordinates (Angstroms)
 Number     Number       Type             X           Y           Z
 ---------------------------------------------------------------------
      1          6           0        0.000000    0.000000    0.426115
      2          1           0        0.000000    0.000000    1.509070
      3          7           0        0.000000    1.162363   -0.174667
      4          1           0        0.000000    2.011408    0.370136
      5          1           0        0.000000    1.263536   -1.180345
      6          7           0        0.000000   -1.162363   -0.174667
      7          1           0        0.000000   -1.263536   -1.180345
      8          1           0        0.000000   -2.011408    0.370136
 ---------------------------------------------------------------------

 The electronic state is 1-A1.
 Alpha  occ. eigenvalues --  -14.59206 -14.59205 -10.51905  -1.22561  -1.13970
 Alpha  occ. eigenvalues --   -0.90088  -0.82369  -0.79862  -0.73148  -0.67114
 Alpha  occ. eigenvalues --   -0.64700  -0.52026
 Alpha virt. eigenvalues --   -0.24168  -0.18466  -0.15907  -0.15545  -0.10718
 Alpha virt. eigenvalues --   -0.10470  -0.10367  -0.08854  -0.06774  -0.06461
 Alpha virt. eigenvalues --   -0.05611  -0.04963  -0.04624  -0.02966  -0.02869

 Mulliken atomic charges:
              1
     1  C    0.133074
     2  H    0.607170
     3  N   -0.111278
     4  H    0.099131
     5  H    0.142025
     6  N   -0.111278
     7  H    0.142025
     8  H    0.099131
 Sum of Mulliken atomic charges =   1.00000

 Dipole moment (field-independent basis, Debye):
    X=              0.0000    Y=              0.0000    Z=             -0.2083  Tot=              0.2083
 Quadrupole moment (field-independent basis, Debye-Ang):
   XX=            -19.1406   YY=             -4.6665   ZZ=            -10.4318
   XY=              0.0000   XZ=              0.0000   YZ=              0.0000

  Exact polarizability:  18.279   0.000  37.214   0.000   0.000  24.963
 Approx polarizability:  24.378   0.000  53.899   0.000   0.000  34.453

                     1                      2                      3
                    A1                     A2                     A2
 Frequencies --   519.3081               545.4166               602.6857
 Red. masses --     1.9959                 1.0922                 1.1681
 Frc consts  --     0.3171                 0.1914                 0.2500
 IR Inten    --     0.5174                 0.0000                 0.0000
 Raman Activ --     1.9711                 0.0000                 0.1780

                     4                      5                      6
                    B1                     B1                     B2
 Frequencies --   627.1260               720.1034              1039.8447
 Red. masses --     1.1526                 1.6411                 1.1528
 Frc consts  --     0.2671                 0.5014                 0.7344
 IR Inten    --   411.3427                11.5994                 0.4297
 Raman Activ --     0.0025                 0.0576                 0.0972

                     7                      8                      9
                    B1                     A1                     B2
 Frequencies --  1084.2699              1126.2893              1384.2557
 Red. masses --     1.2291                 1.9690                 1.2205
 Frc consts  --     0.8514                 1.4717                 1.3779
 IR Inten    --    17.4344                 3.1008                61.1733
 Raman Activ --     0.1072                14.4750                 3.3649

                    10                     11                     12
                    A1                     B2                     A1
 Frequencies --  1411.6248              1617.6913              1693.8715
 Red. masses --     2.4379                 1.2005                 1.2131
 Frc consts  --     2.8622                 1.8509                 2.0508
 IR Inten    --     8.0562                 6.0059                38.9357
 Raman Activ --    16.9534                 3.1326                 2.1430

                    13                     14                     15
                    B2                     A1                     B2
 Frequencies --  1764.0045              3199.8825              3535.5652
 Red. masses --     3.4538                 1.0979                 1.0466
 Frc consts  --     6.3320                 6.6235                 7.7084
 IR Inten    --   424.1784                 7.3500               300.7443
 Raman Activ --     0.4104                55.3540                 0.8877

                    16                     17                     18
                    A1                     B2                     A1
 Frequencies --  3549.9419              3653.3001              3654.1242
 Red. masses --     1.0511                 1.1045                 1.1060
 Frc consts  --     7.8043                 8.6854                 8.7013
 IR Inten    --    44.7032                98.2428               183.7936
 Raman Activ --   161.1469                27.4006                36.6467

 - Thermochemistry -
 -------------------
 Temperature   298.150 Kelvin.  Pressure   1.00000 Atm.
 Atom     1 has atomic number  6 and mass  12.00000

 Molecular mass:    45.04527 amu.
 Principal axes and moments of inertia in atomic units:
                           1         2         3
     Eigenvalues --    30.04171 175.73806 205.77977
           X            0.00000   0.00000   1.00000
           Y            1.00000   0.00000   0.00000
           Z            0.00000   1.00000   0.00000
 This molecule is an asymmetric top.
 Rotational symmetry number  2.
 Rotational temperatures (Kelvin)      2.88312     0.49286     0.42091
 Rotational constants (GHZ):          60.07451    10.26950     8.77026
 Zero-point vibrational energy     189783.4 (Joules/Mol)
                                   45.35932 (Kcal/Mol)
 Warning -- explicit consideration of   3 degrees of freedom as
           vibrations may cause significant error
 Vibrational temperatures:    747.17   784.73   867.13   902.29  1036.07
          (Kelvin)           1496.10  1560.02  1620.48  1991.63  2031.01
                             2327.49  2437.10  2538.01  4603.91  5086.88
                             5107.57  5256.28  5257.46

 Zero-point correction=                           0.072285 (Hartree/Particle)
 Thermal correction to Energy=                    0.076031
 Thermal correction to Enthalpy=                  0.076976
 Thermal correction to Gibbs Free Energy=         0.048406
 Sum of electronic and zero-point Energies=           -150.378122
 Sum of electronic and thermal Energies=              -150.374375
 Sum of electronic and thermal Enthalpies=            -150.373431
 Sum of electronic and thermal Free Energies=         -150.402000

                     E (Thermal)             CV                S
                      KCal/Mol        Cal/Mol-Kelvin    Cal/Mol-Kelvin
 Total                   47.710             12.328             60.129
 Electronic               0.000              0.000              0.000
 Translational            0.889              2.981             37.341
 Rotational               0.889              2.981             20.235
 Vibrational             45.933              6.366              2.553
 Vibration     1          0.874              1.207              0.612
 Vibration     2          0.901              1.150              0.554
 Vibration     3          0.961              1.026              0.445

 Normal termination of Gaussian 09 at Thu Feb 26 00:23:36 2015.
