 Gaussian 09, Revision C.01,
 Gaussian 09:  EM64L-G09RevC.01 23-Sep-2011

 ----------------------------------------------------------------------
 #p opt(VeryTight,CalcAll,Raman) Integral(Grid=UltraFine) CAM-b3lyp/AUG
 -cc-pVTZ
 ----------------------------------------------------------------------

 (Enter /apps/gaussian/g09_c01/g09/l101.exe)
 ----------------------------------------------
 Autjob by noodles.sh | Great noodly basis sets
 ----------------------------------------------
 Charge =  1 Multiplicity = 1

 SCF Done:  E(RCAM-B3LYP) =  -150.373356271     A.U. after    9 cycles
 SCF Done:  E(RCAM-B3LYP) =  -150.373766563     A.U. after    7 cycles
 SCF Done:  E(RCAM-B3LYP) =  -150.373766879     A.U. after    5 cycles
 SCF Done:  E(RCAM-B3LYP) =  -150.373766879     A.U. after    2 cycles
 Optimization completed.
    -- Stationary point found.

                         Standard orientation:
 ---------------------------------------------------------------------
 Center     Atomic      Atomic             Coordinates (Angstroms)
 Number     Number       Type             X           Y           Z
 ---------------------------------------------------------------------
      1          6           0        0.000000    0.000000    0.426147
      2          1           0        0.000000    0.000000    1.509072
      3          7           0        0.000000    1.157177   -0.174424
      4          1           0        0.000000    2.007174    0.368006
      5          1           0        0.000000    1.253900   -1.180014
      6          7           0        0.000000   -1.157177   -0.174424
      7          1           0        0.000000   -1.253900   -1.180014
      8          1           0        0.000000   -2.007174    0.368006
 ---------------------------------------------------------------------

 The electronic state is 1-A1.
 Alpha  occ. eigenvalues --  -14.66201 -14.66199 -10.59327  -1.30911  -1.21869
 Alpha  occ. eigenvalues --   -0.97397  -0.89623  -0.86746  -0.79654  -0.73516
 Alpha  occ. eigenvalues --   -0.71799  -0.58029
 Alpha virt. eigenvalues --   -0.18673  -0.15019  -0.12637  -0.12215  -0.08434
 Alpha virt. eigenvalues --   -0.07751  -0.07616  -0.05856  -0.04502  -0.04259
 Alpha virt. eigenvalues --   -0.03251  -0.02853  -0.02159  -0.00821  -0.00773

 Mulliken atomic charges:
              1
     1  C    0.121790
     2  H    0.619502
     3  N   -0.128356
     4  H    0.107267
     5  H    0.150443
     6  N   -0.128356
     7  H    0.150443
     8  H    0.107267
 Sum of Mulliken atomic charges =   1.00000

 Dipole moment (field-independent basis, Debye):
    X=              0.0000    Y=              0.0000    Z=             -0.1815  Tot=              0.1815
 Quadrupole moment (field-independent basis, Debye-Ang):
   XX=            -19.1971   YY=             -4.7924   ZZ=            -10.4056
   XY=              0.0000   XZ=              0.0000   YZ=              0.0000

  Exact polarizability:  18.160   0.000  36.773   0.000   0.000  24.711
 Approx polarizability:  20.929   0.000  40.882   0.000   0.000  28.622

                     1                      2                      3
                    A1                     A2                     A2
 Frequencies --   523.1096               556.0969               618.4232
 Red. masses --     1.9863                 1.0529                 1.2171
 Frc consts  --     0.3202                 0.1918                 0.2743
 IR Inten    --     0.4488                 0.0000                 0.0000
 Raman Activ --     1.9172                 0.0014                 0.2246

                     4                      5                      6
                    B1                     B1                     B2
 Frequencies --   645.5146               731.7867              1044.7040
 Red. masses --     1.1216                 1.6836                 1.1524
 Frc consts  --     0.2754                 0.5312                 0.7411
 IR Inten    --   408.4914                32.0295                 0.5128
 Raman Activ --     0.0067                 0.0497                 0.0845

                     7                      8                      9
                    B1                     A1                     B2
 Frequencies --  1100.5981              1138.3746              1388.1857
 Red. masses --     1.2422                 1.9230                 1.2105
 Frc consts  --     0.8866                 1.4682                 1.3744
 IR Inten    --    14.6424                 3.2949                64.7212
 Raman Activ --     0.1111                13.5531                 3.1550

                    10                     11                     12
                    A1                     B2                     A1
 Frequencies --  1428.6207              1622.0076              1700.6413
 Red. masses --     2.4274                 1.1805                 1.2352
 Frc consts  --     2.9189                 1.8298                 2.1048
 IR Inten    --     8.0741                 9.5211                43.0624
 Raman Activ --    17.7010                 2.9472                 1.9020

                    13                     14                     15
                    B2                     A1                     B2
 Frequencies --  1785.8190              3216.7651              3555.2470
 Red. masses --     3.7302                 1.0991                 1.0465
 Frc consts  --     7.0090                 6.7008                 7.7937
 IR Inten    --   463.9613                 8.8126               323.5834
 Raman Activ --     0.4325                52.2741                 0.7692

                    16                     17                     18
                    A1                     B2                     A1
 Frequencies --  3570.8215              3672.7435              3674.0045
 Red. masses --     1.0514                 1.1049                 1.1065
 Frc consts  --     7.8984                 8.7815                 8.8001
 IR Inten    --    48.5304               101.9708               197.9981
 Raman Activ --   155.7865                25.6003                35.0011

 - Thermochemistry -
 -------------------
 Temperature   298.150 Kelvin.  Pressure   1.00000 Atm.
 Atom     1 has atomic number  6 and mass  12.00000

 Molecular mass:    45.04527 amu.
 Principal axes and moments of inertia in atomic units:
                           1         2         3
     Eigenvalues --    30.01742 174.23782 204.25524
           X            0.00000   0.00000   1.00000
           Y            1.00000   0.00000   0.00000
           Z            0.00000   1.00000   0.00000
 This molecule is an asymmetric top.
 Rotational symmetry number  2.
 Rotational temperatures (Kelvin)      2.88545     0.49710     0.42405
 Rotational constants (GHZ):          60.12312    10.35792     8.83572
 Zero-point vibrational energy     191243.8 (Joules/Mol)
                                   45.70836 (Kcal/Mol)
 Warning -- explicit consideration of   3 degrees of freedom as
           vibrations may cause significant error
 Vibrational temperatures:    752.64   800.10   889.77   928.75  1052.88
          (Kelvin)           1503.09  1583.51  1637.87  1997.29  2055.46
                             2333.70  2446.84  2569.39  4628.20  5115.20
                             5137.61  5284.25  5286.07

 Zero-point correction=                           0.072841 (Hartree/Particle)
 Thermal correction to Energy=                    0.076552
 Thermal correction to Enthalpy=                  0.077496
 Thermal correction to Gibbs Free Energy=         0.048986
 Sum of electronic and zero-point Energies=           -150.300926
 Sum of electronic and thermal Energies=              -150.297215
 Sum of electronic and thermal Enthalpies=            -150.296270
 Sum of electronic and thermal Free Energies=         -150.324781

                     E (Thermal)             CV                S
                      KCal/Mol        Cal/Mol-Kelvin    Cal/Mol-Kelvin
 Total                   48.037             12.163             60.005
 Electronic               0.000              0.000              0.000
 Translational            0.889              2.981             37.341
 Rotational               0.889              2.981             20.218
 Vibrational             46.260              6.202              2.446
 Vibration     1          0.878              1.199              0.603
 Vibration     2          0.912              1.126              0.532
 Vibration     3          0.978              0.993              0.419

 Normal termination of Gaussian 09 at Thu Feb 26 00:49:57 2015.
