 Gaussian 09, Revision C.01,
 Gaussian 09:  EM64L-G09RevC.01 23-Sep-2011

 ----------------------------------------------------------------------
 #p opt(VeryTight,CalcAll,Raman) Integral(Grid=UltraFine) CAM-b3lyp/AUG
 -cc-pVDZ
 ----------------------------------------------------------------------

 (Enter /apps/gaussian/g09_c01/g09/l101.exe)
 ----------------------------------------------
 Autjob by noodles.sh | Great noodly basis sets
 ----------------------------------------------
 Charge =  1 Multiplicity = 1

 SCF Done:  E(RCAM-B3LYP) =  -150.331314212     A.U. after   10 cycles
 SCF Done:  E(RCAM-B3LYP) =  -150.331398509     A.U. after    8 cycles
 SCF Done:  E(RCAM-B3LYP) =  -150.331398522     A.U. after    5 cycles
 Optimization completed.
    -- Stationary point found.

                         Standard orientation:
 ---------------------------------------------------------------------
 Center     Atomic      Atomic             Coordinates (Angstroms)
 Number     Number       Type             X           Y           Z
 ---------------------------------------------------------------------
      1          6           0        0.000000    0.000000    0.429213
      2          1           0        0.000000    0.000000    1.520048
      3          7           0        0.000000    1.162374   -0.175789
      4          1           0        0.000000    2.016191    0.368763
      5          1           0        0.000000    1.257704   -1.185901
      6          7           0        0.000000   -1.162374   -0.175789
      7          1           0        0.000000   -1.257704   -1.185901
      8          1           0        0.000000   -2.016191    0.368763
 ---------------------------------------------------------------------

 The electronic state is 1-A1.
 Alpha  occ. eigenvalues --  -14.67864 -14.67861 -10.60899  -1.30797  -1.21782
 Alpha  occ. eigenvalues --   -0.97273  -0.89326  -0.86517  -0.79468  -0.73373
 Alpha  occ. eigenvalues --   -0.71457  -0.57786
 Alpha virt. eigenvalues --   -0.18787  -0.15048  -0.12654  -0.12256  -0.07797
 Alpha virt. eigenvalues --   -0.07674  -0.07526  -0.05163  -0.03847  -0.03185
 Alpha virt. eigenvalues --   -0.01574  -0.01449   0.00414   0.00699   0.00849

 Mulliken atomic charges:
              1
     1  C    1.046475
     2  H   -0.297750
     3  N    0.177461
     4  H    0.025719
     5  H   -0.077543
     6  N    0.177461
     7  H   -0.077543
     8  H    0.025719
 Sum of Mulliken atomic charges =   1.00000

 Dipole moment (field-independent basis, Debye):
    X=              0.0000    Y=              0.0000    Z=             -0.1709  Tot=              0.1709
 Quadrupole moment (field-independent basis, Debye-Ang):
   XX=            -19.3278   YY=             -4.7489   ZZ=            -10.3751
   XY=              0.0000   XZ=              0.0000   YZ=              0.0000

  Exact polarizability:  18.287   0.000  37.202   0.000   0.000  24.902
 Approx polarizability:  21.009   0.000  41.437   0.000   0.000  28.876

                     1                      2                      3
                    A1                     A2                     A2
 Frequencies --   516.6384               553.5570               627.3539
 Red. masses --     1.9932                 1.0551                 1.2140
 Frc consts  --     0.3134                 0.1905                 0.2815
 IR Inten    --     0.3973                 0.0000                 0.0000
 Raman Activ --     1.9353                 0.0139                 0.2632

                     4                      5                      6
                    B1                     B1                     B2
 Frequencies --   648.6750               728.1243              1037.8800
 Red. masses --     1.1221                 1.6861                 1.1526
 Frc consts  --     0.2782                 0.5267                 0.7315
 IR Inten    --   410.4016                31.4176                 0.6006
 Raman Activ --     0.0077                 0.0512                 0.1079

                     7                      8                      9
                    B1                     A1                     B2
 Frequencies --  1094.8111              1133.8663              1380.6545
 Red. masses --     1.2393                 1.8882                 1.1931
 Frc consts  --     0.8752                 1.4302                 1.3400
 IR Inten    --    17.2339                 3.6350                59.2027
 Raman Activ --     0.1318                13.3875                 3.2476

                    10                     11                     12
                    A1                     B2                     A1
 Frequencies --  1420.1042              1608.3416              1692.6527
 Red. masses --     2.4071                 1.1780                 1.2500
 Frc consts  --     2.8602                 1.7954                 2.1100
 IR Inten    --     6.8841                 9.8400                43.1905
 Raman Activ --    18.4472                 3.2500                 2.0013

                    13                     14                     15
                    B2                     A1                     B2
 Frequencies --  1791.6204              3230.4755              3551.7481
 Red. masses --     3.9101                 1.0998                 1.0476
 Frc consts  --     7.3948                 6.7621                 7.7860
 IR Inten    --   460.0597                 9.6479               332.3050
 Raman Activ --     0.3832                53.2777                 0.7434

                    16                     17                     18
                    A1                     B2                     A1
 Frequencies --  3567.0722              3678.0634              3679.3406
 Red. masses --     1.0523                 1.1054                 1.1069
 Frc consts  --     7.8889                 8.8104                 8.8291
 IR Inten    --    46.2530                99.0168               199.6945
 Raman Activ --   158.9467                26.2353                35.1505

 - Thermochemistry -
 -------------------
 Temperature   298.150 Kelvin.  Pressure   1.00000 Atm.
 Atom     1 has atomic number  6 and mass  12.00000

 Molecular mass:    45.04527 amu.
 Principal axes and moments of inertia in atomic units:
                           1         2         3
     Eigenvalues --    30.40158 175.77322 206.17481
           X            0.00000   0.00000   1.00000
           Y            1.00000   0.00000   0.00000
           Z            0.00000   1.00000   0.00000
 This molecule is an asymmetric top.
 Rotational symmetry number  2.
 Rotational temperatures (Kelvin)      2.84899     0.49276     0.42010
 Rotational constants (GHZ):          59.36339    10.26744     8.75345
 Zero-point vibrational energy     191049.5 (Joules/Mol)
                                   45.66192 (Kcal/Mol)
 Warning -- explicit consideration of   2 degrees of freedom as
           vibrations may cause significant error
 Vibrational temperatures:    743.33   796.44   902.62   933.30  1047.61
          (Kelvin)           1493.28  1575.19  1631.38  1986.45  2043.21
                             2314.04  2435.35  2577.74  4647.93  5110.17
                             5132.21  5291.91  5293.74

 Zero-point correction=                           0.072767 (Hartree/Particle)
 Thermal correction to Energy=                    0.076482
 Thermal correction to Enthalpy=                  0.077426
 Thermal correction to Gibbs Free Energy=         0.048896
 Sum of electronic and zero-point Energies=           -150.258632
 Sum of electronic and thermal Energies=              -150.254916
 Sum of electronic and thermal Enthalpies=            -150.253972
 Sum of electronic and thermal Free Energies=         -150.282503

                     E (Thermal)             CV                S
                      KCal/Mol        Cal/Mol-Kelvin    Cal/Mol-Kelvin
 Total                   47.993             12.189             60.047
 Electronic               0.000              0.000              0.000
 Translational            0.889              2.981             37.341
 Rotational               0.889              2.981             20.249
 Vibrational             46.216              6.227              2.457
 Vibration     1          0.872              1.213              0.618
 Vibration     2          0.909              1.132              0.537

 Normal termination of Gaussian 09 at Thu Feb 26 00:12:41 2015.
