 Gaussian 09, Revision C.01,
 Gaussian 09:  EM64L-G09RevC.01 23-Sep-2011

 ----------------------------------------------------------------------
 #p opt(VeryTight,CalcAll,Raman) Integral(Grid=UltraFine) PBE1PBE/AUG-c
 c-pVQZ
 ----------------------------------------------------------------------

 (Enter /apps/gaussian/g09_c01/g09/l101.exe)
 ----------------------------------------------
 Autjob by noodles.sh | Great noodly basis sets
 ----------------------------------------------
 Charge =  1 Multiplicity = 1

 SCF Done:  E(RPBE1PBE) =  -150.281063969     A.U. after    8 cycles
 SCF Done:  E(RPBE1PBE) =  -150.281498168     A.U. after    7 cycles
 SCF Done:  E(RPBE1PBE) =  -150.281498501     A.U. after    5 cycles
 SCF Done:  E(RPBE1PBE) =  -150.281498501     A.U. after    2 cycles
 Optimization completed.
    -- Stationary point found.

                         Standard orientation:
 ---------------------------------------------------------------------
 Center     Atomic      Atomic             Coordinates (Angstroms)
 Number     Number       Type             X           Y           Z
 ---------------------------------------------------------------------
      1          6           0        0.000000    0.000000    0.424445
      2          1           0        0.000000    0.000000    1.509068
      3          7           0        0.000000    1.158038   -0.174277
      4          1           0        0.000000    2.005397    0.370757
      5          1           0        0.000000    1.258044   -1.178688
      6          7           0        0.000000   -1.158038   -0.174277
      7          1           0        0.000000   -1.258044   -1.178688
      8          1           0        0.000000   -2.005397    0.370757
 ---------------------------------------------------------------------

 The electronic state is 1-A1.
 Alpha  occ. eigenvalues --  -14.65252 -14.65251 -10.56388  -1.25182  -1.16267
 Alpha  occ. eigenvalues --   -0.91681  -0.83830  -0.81191  -0.74232  -0.67891
 Alpha  occ. eigenvalues --   -0.66065  -0.52935
 Alpha virt. eigenvalues --   -0.22984  -0.17112  -0.14647  -0.14146  -0.09940
 Alpha virt. eigenvalues --   -0.09247  -0.09076  -0.08021  -0.05843  -0.05773
 Alpha virt. eigenvalues --   -0.05154  -0.04819  -0.04213  -0.02537  -0.02490

 Mulliken atomic charges:
              1
     1  C    0.022466
     2  H    0.663578
     3  N   -0.535470
     4  H    0.305942
     5  H    0.386507
     6  N   -0.535470
     7  H    0.386507
     8  H    0.305942
 Sum of Mulliken atomic charges =   1.00000

 Dipole moment (field-independent basis, Debye):
    X=              0.0000    Y=              0.0000    Z=             -0.2148  Tot=              0.2148
 Quadrupole moment (field-independent basis, Debye-Ang):
   XX=            -19.0469   YY=             -4.5060   ZZ=            -10.2411
   XY=              0.0000   XZ=              0.0000   YZ=              0.0000

  Exact polarizability:  18.041   0.000  36.636   0.000   0.000  24.667
 Approx polarizability:  23.221   0.000  50.493   0.000   0.000  32.845

                     1                      2                      3
                    A1                     A2                     A2
 Frequencies --   519.4416               551.0356               608.7329
 Red. masses --     1.9823                 1.0951                 1.1649
 Frc consts  --     0.3151                 0.1959                 0.2543
 IR Inten    --     0.5810                 0.0000                 0.0000
 Raman Activ --     1.8614                 0.0006                 0.1601

                     4                      5                      6
                    B1                     B1                     B2
 Frequencies --   632.8424               727.3927              1038.4386
 Red. masses --     1.1506                 1.6486                 1.1504
 Frc consts  --     0.2715                 0.5139                 0.7309
 IR Inten    --   413.3344                12.1585                 0.7431
 Raman Activ --     0.0026                 0.0548                 0.0839

                     7                      8                      9
                    B1                     A1                     B2
 Frequencies --  1088.8369              1136.5889              1386.5736
 Red. masses --     1.2290                 1.9190                 1.1962
 Frc consts  --     0.8585                 1.4606                 1.3550
 IR Inten    --    17.7312                 3.7690                54.0848
 Raman Activ --     0.1121                13.2221                 3.1637

                    10                     11                     12
                    A1                     B2                     A1
 Frequencies --  1424.5033              1616.6876              1693.6581
 Red. masses --     2.4419                 1.1619                 1.2357
 Frc consts  --     2.9195                 1.7893                 2.0884
 IR Inten    --     7.2546                13.9784                40.4589
 Raman Activ --    17.5816                 3.1909                 1.9198

                    13                     14                     15
                    B2                     A1                     B2
 Frequencies --  1791.5139              3213.6180              3570.5443
 Red. masses --     4.1079                 1.0986                 1.0468
 Frc consts  --     7.7681                 6.6845                 7.8631
 IR Inten    --   428.9003                 8.1025               316.0329
 Raman Activ --     0.2320                53.7710                 0.8099

                    16                     17                     18
                    A1                     B2                     A1
 Frequencies --  3585.3177              3692.5335              3693.4071
 Red. masses --     1.0513                 1.1048                 1.1062
 Frc consts  --     7.9624                 8.8751                 8.8910
 IR Inten    --    45.1675                98.5570               195.0822
 Raman Activ --   157.8739                26.0501                34.5494

 - Thermochemistry -
 -------------------
 Temperature   298.150 Kelvin.  Pressure   1.00000 Atm.
 Atom     1 has atomic number  6 and mass  12.00000

 Molecular mass:    45.04527 amu.
 Principal axes and moments of inertia in atomic units:
                           1         2         3
     Eigenvalues --    29.94249 174.46073 204.40321
           X            0.00000   0.00000   1.00000
           Y            1.00000   0.00000   0.00000
           Z            0.00000   1.00000   0.00000
 This molecule is an asymmetric top.
 Rotational symmetry number  2.
 Rotational temperatures (Kelvin)      2.89267     0.49647     0.42374
 Rotational constants (GHZ):          60.27359    10.34468     8.82932
 Zero-point vibrational energy     191233.0 (Joules/Mol)
                                   45.70579 (Kcal/Mol)
 Warning -- explicit consideration of   3 degrees of freedom as
           vibrations may cause significant error
 Vibrational temperatures:    747.36   792.82   875.83   910.52  1046.55
          (Kelvin)           1494.08  1566.59  1635.30  1994.97  2049.54
                             2326.05  2436.79  2577.59  4623.67  5137.21
                             5158.47  5312.73  5313.98

 Zero-point correction=                           0.072837 (Hartree/Particle)
 Thermal correction to Energy=                    0.076569
 Thermal correction to Enthalpy=                  0.077513
 Thermal correction to Gibbs Free Energy=         0.048973
 Sum of electronic and zero-point Energies=           -150.208662
 Sum of electronic and thermal Energies=              -150.204929
 Sum of electronic and thermal Enthalpies=            -150.203985
 Sum of electronic and thermal Free Energies=         -150.232526

                     E (Thermal)             CV                S
                      KCal/Mol        Cal/Mol-Kelvin    Cal/Mol-Kelvin
 Total                   48.048             12.258             60.068
 Electronic               0.000              0.000              0.000
 Translational            0.889              2.981             37.341
 Rotational               0.889              2.981             20.218
 Vibrational             46.270              6.297              2.510
 Vibration     1          0.874              1.207              0.611
 Vibration     2          0.906              1.137              0.542
 Vibration     3          0.968              1.013              0.435

 Normal termination of Gaussian 09 at Thu Feb 26 05:08:27 2015.
