 Gaussian 09, Revision C.01,
 Gaussian 09:  EM64L-G09RevC.01 23-Sep-2011

 ----------------------------------------------------------------------
 #p opt(VeryTight,CalcAll,Raman) Integral(Grid=UltraFine) PBEPBE/AUG-cc
 -pVQZ
 ----------------------------------------------------------------------

 (Enter /apps/gaussian/g09_c01/g09/l101.exe)
 ----------------------------------------------
 Autjob by noodles.sh | Great noodly basis sets
 ----------------------------------------------
 Charge =  1 Multiplicity = 1

 SCF Done:  E(RPBE-PBE) =  -150.273241633     A.U. after    8 cycles
 SCF Done:  E(RPBE-PBE) =  -150.273276244     A.U. after    7 cycles
 SCF Done:  E(RPBE-PBE) =  -150.273276247     A.U. after    4 cycles
 Optimization completed.
    -- Stationary point found.

                         Standard orientation:
 ---------------------------------------------------------------------
 Center     Atomic      Atomic             Coordinates (Angstroms)
 Number     Number       Type             X           Y           Z
 ---------------------------------------------------------------------
      1          6           0        0.000000    0.000000    0.427912
      2          1           0        0.000000    0.000000    1.519369
      3          7           0        0.000000    1.168141   -0.175654
      4          1           0        0.000000    2.022172    0.374439
      5          1           0        0.000000    1.271923   -1.188277
      6          7           0        0.000000   -1.168141   -0.175654
      7          1           0        0.000000   -1.271923   -1.188277
      8          1           0        0.000000   -2.022172    0.374439
 ---------------------------------------------------------------------

 The electronic state is 1-A1.
 Alpha  occ. eigenvalues --  -14.25492 -14.25492 -10.21794  -1.13551  -1.05564
 Alpha  occ. eigenvalues --   -0.83371  -0.76206  -0.73977  -0.67622  -0.61656
 Alpha  occ. eigenvalues --   -0.59660  -0.47868
 Alpha virt. eigenvalues --   -0.27296  -0.20011  -0.17480  -0.17077  -0.11804
 Alpha virt. eigenvalues --   -0.11762  -0.11538  -0.10273  -0.07840  -0.07178
 Alpha virt. eigenvalues --   -0.06813  -0.06676  -0.05439  -0.03989  -0.03801

 Mulliken atomic charges:
              1
     1  C    0.004664
     2  H    0.646911
     3  N   -0.531692
     4  H    0.314618
     5  H    0.391287
     6  N   -0.531692
     7  H    0.391287
     8  H    0.314618
 Sum of Mulliken atomic charges =   1.00000

 Dipole moment (field-independent basis, Debye):
    X=              0.0000    Y=              0.0000    Z=             -0.2806  Tot=              0.2806
 Quadrupole moment (field-independent basis, Debye-Ang):
   XX=            -19.1592   YY=             -4.3468   ZZ=            -10.4024
   XY=              0.0000   XZ=              0.0000   YZ=              0.0000

  Exact polarizability:  18.689   0.000  38.321   0.000   0.000  25.740
 Approx polarizability:  27.338   0.000  70.894   0.000   0.000  40.919

                     1                      2                      3
                    A1                     A2                     A2
 Frequencies --   503.8828               523.7473               581.7938
 Red. masses --     1.9854                 1.1306                 1.1275
 Frc consts  --     0.2970                 0.1827                 0.2249
 IR Inten    --     0.7999                 0.0000                 0.0000
 Raman Activ --     2.0095                 0.0002                 0.1279

                     4                      5                      6
                    B1                     B1                     B2
 Frequencies --   600.0357               699.9137              1005.4876
 Red. masses --     1.1891                 1.6031                 1.1517
 Frc consts  --     0.2522                 0.4627                 0.6861
 IR Inten    --   393.9543                 1.3706                 0.7495
 Raman Activ --     0.0000                 0.0839                 0.1076

                     7                      8                      9
                    B1                     A1                     B2
 Frequencies --  1034.4182              1097.2267              1347.7812
 Red. masses --     1.2125                 1.9410                 1.1908
 Frc consts  --     0.7644                 1.3768                 1.2745
 IR Inten    --    22.6330                 4.1464                43.2096
 Raman Activ --     0.1286                14.2249                 3.6820

                    10                     11                     12
                    A1                     B2                     A1
 Frequencies --  1371.2320              1567.8988              1638.9440
 Red. masses --     2.4777                 1.1604                 1.2199
 Frc consts  --     2.7449                 1.6807                 1.9307
 IR Inten    --     5.5543                15.4366                35.7710
 Raman Activ --    17.5266                 3.7706                 2.1864

                    13                     14                     15
                    B2                     A1                     B2
 Frequencies --  1728.5884              3129.8457              3462.7825
 Red. masses --     4.1829                 1.0972                 1.0470
 Frc consts  --     7.3639                 6.3327                 7.3967
 IR Inten    --   363.5995                 7.8579               283.9523
 Raman Activ --     0.1329                59.1180                 1.0422

                    16                     17                     18
                    A1                     B2                     A1
 Frequencies --  3476.1908              3580.2901              3580.8565
 Red. masses --     1.0511                 1.1040                 1.1053
 Frc consts  --     7.4833                 8.3382                 8.3503
 IR Inten    --    41.2270                97.3780               172.1683
 Raman Activ --   169.8393                28.6256                38.1857

 - Thermochemistry -
 -------------------
 Temperature   298.150 Kelvin.  Pressure   1.00000 Atm.
 Atom     1 has atomic number  6 and mass  12.00000

 Molecular mass:    45.04527 amu.
 Principal axes and moments of inertia in atomic units:
                           1         2         3
     Eigenvalues --    30.41268 177.55025 207.96293
           X            0.00000   0.00000   1.00000
           Y            1.00000   0.00000   0.00000
           Z            0.00000   1.00000   0.00000
 This molecule is an asymmetric top.
 Rotational symmetry number  2.
 Rotational temperatures (Kelvin)      2.84795     0.48783     0.41649
 Rotational constants (GHZ):          59.34173    10.16468     8.67819
 Zero-point vibrational energy     185008.0 (Joules/Mol)
                                   44.21796 (Kcal/Mol)
 Warning -- explicit consideration of   4 degrees of freedom as
           vibrations may cause significant error
 Vibrational temperatures:    724.97   753.55   837.07   863.32  1007.02
          (Kelvin)           1446.67  1488.30  1578.66  1939.15  1972.89
                             2255.85  2358.07  2487.05  4503.14  4982.17
                             5001.46  5151.23  5152.05

 Zero-point correction=                           0.070466 (Hartree/Particle)
 Thermal correction to Energy=                    0.074289
 Thermal correction to Enthalpy=                  0.075233
 Thermal correction to Gibbs Free Energy=         0.046538
 Sum of electronic and zero-point Energies=           -150.202810
 Sum of electronic and thermal Energies=              -150.198987
 Sum of electronic and thermal Enthalpies=            -150.198043
 Sum of electronic and thermal Free Energies=         -150.226738

                     E (Thermal)             CV                S
                      KCal/Mol        Cal/Mol-Kelvin    Cal/Mol-Kelvin
 Total                   46.617             12.708             60.395
 Electronic               0.000              0.000              0.000
 Translational            0.889              2.981             37.341
 Rotational               0.889              2.981             20.268
 Vibrational             44.840              6.746              2.786
 Vibration     1          0.859              1.241              0.648
 Vibration     2          0.879              1.197              0.601
 Vibration     3          0.939              1.071              0.482
 Vibration     4          0.958              1.032              0.450

 Normal termination of Gaussian 09 at Thu Feb 26 03:12:03 2015.
