 Gaussian 09, Revision C.01,
 Gaussian 09:  EM64L-G09RevC.01 23-Sep-2011

 ----------------------------------------------------------------------
 #p opt(VeryTight,CalcAll,Raman) Integral(Grid=UltraFine) b3lyp/AUG-cc-
 pVTZ
 ----------------------------------------------------------------------

 (Enter /apps/gaussian/g09_c01/g09/l101.exe)
 ----------------------------------------------
 Autjob by noodles.sh | Great noodly basis sets
 ----------------------------------------------
 Charge =  1 Multiplicity = 1

 SCF Done:  E(RB3LYP) =  -96.2580895091     A.U. after    9 cycles
 SCF Done:  E(RB3LYP) =  -96.2582149060     A.U. after    7 cycles
 SCF Done:  E(RB3LYP) =  -96.2582149355     A.U. after    5 cycles
 SCF Done:  E(RB3LYP) =  -96.2582149355     A.U. after    2 cycles
 Optimization completed.
    -- Stationary point found.

                         Standard orientation:
 ---------------------------------------------------------------------
 Center     Atomic      Atomic             Coordinates (Angstroms)
 Number     Number       Type             X           Y           Z
 ---------------------------------------------------------------------
      1          6           0        0.000000    0.000000   -0.801559
      2          1           0        1.026389   -0.095519   -1.140840
      3          1           0       -0.595916   -0.841119   -1.140840
      4          1           0       -0.430473    0.936638   -1.140840
      5          7           0        0.000000    0.000000    0.711248
      6          1           0       -0.947898    0.088197    1.084381
      7          1           0        0.397568   -0.865002    1.084381
      8          1           0        0.550330    0.776805    1.084381
 ---------------------------------------------------------------------

 The electronic state is 1-A.
 Alpha  occ. eigenvalues --  -14.66731 -10.43853  -1.22635  -0.93953  -0.80978
 Alpha  occ. eigenvalues --   -0.80978  -0.71093  -0.63131  -0.63131
 Alpha virt. eigenvalues --   -0.21863  -0.15310  -0.15194  -0.15194  -0.11108
 Alpha virt. eigenvalues --   -0.11108  -0.10030  -0.07518  -0.07485  -0.07485
 Alpha virt. eigenvalues --   -0.05503  -0.05301  -0.05301  -0.02987  -0.02667

 Mulliken atomic charges:
              1
     1  C   -0.563887
     2  H    0.314484
     3  H    0.314484
     4  H    0.314484
     5  N    0.194236
     6  H    0.142066
     7  H    0.142066
     8  H    0.142066
 Sum of Mulliken atomic charges =   1.00000

 Dipole moment (field-independent basis, Debye):
    X=              0.0000    Y=              0.0000    Z=              2.1576  Tot=              2.1576
 Quadrupole moment (field-independent basis, Debye-Ang):
   XX=            -10.2033   YY=            -10.2033   ZZ=             -6.8099
   XY=              0.0000   XZ=              0.0000   YZ=              0.0000

  Exact polarizability:  19.275   0.000  19.275   0.000   0.000  22.434
 Approx polarizability:  25.743   0.000  25.743   0.000   0.000  27.209

                     1                      2                      3
                     A                      E                      E
 Frequencies --   283.7036               911.0973               911.0974
 Red. masses --     1.0078                 1.0533                 1.0533
 Frc consts  --     0.0478                 0.5152                 0.5152
 IR Inten    --     0.0000                22.5910                22.5910
 Raman Activ --     0.0000                 0.0243                 0.0243

                     4                      5                      6
                     A                      E                      E
 Frequencies --   917.8783              1279.5662              1279.5663
 Red. masses --     5.1131                 1.4067                 1.4067
 Frc consts  --     2.5381                 1.3570                 1.3570
 IR Inten    --     7.6792                 3.9306                 3.9306
 Raman Activ --     8.3232                 0.6292                 0.6290

                     7                      8                      9
                     A                      E                      E
 Frequencies --  1468.6775              1500.7629              1500.7629
 Red. masses --     1.1398                 1.0368                 1.0368
 Frc consts  --     1.4486                 1.3759                 1.3759
 IR Inten    --     0.3608                20.8547                20.8549
 Raman Activ --     0.4257                 3.8144                 3.8128

                    10                     11                     12
                     A                      E                      E
 Frequencies --  1528.7005              1669.8438              1669.8438
 Red. masses --     1.1635                 1.0394                 1.0394
 Frc consts  --     1.6021                 1.7076                 1.7076
 IR Inten    --   109.2022                39.8347                39.8349
 Raman Activ --     0.9739                 3.8649                 3.8659

                    13                     14                     15
                     A                      E                      E
 Frequencies --  3083.5017              3181.5492              3181.5494
 Red. masses --     1.0295                 1.1109                 1.1109
 Frc consts  --     5.7672                 6.6255                 6.6255
 IR Inten    --     0.2193                 0.7442                 0.7443
 Raman Activ --   127.7891                33.4670                33.4681

                    16                     17                     18
                     A                      E                      E
 Frequencies --  3397.5835              3469.4378              3469.4379
 Red. masses --     1.0305                 1.0931                 1.0931
 Frc consts  --     7.0087                 7.7521                 7.7521
 IR Inten    --    45.1279               116.5665               116.5668
 Raman Activ --    87.8683                23.9222                23.9242

 - Thermochemistry -
 -------------------
 Temperature   298.150 Kelvin.  Pressure   1.00000 Atm.
 Atom     1 has atomic number  6 and mass  12.00000

 Molecular mass:    32.05002 amu.
 Principal axes and moments of inertia in atomic units:
                           1         2         3
     Eigenvalues --    21.25812  90.20377  90.20377
           X            0.00000   0.31623   0.94868
           Y            0.00000   0.94868  -0.31623
           Z            1.00000   0.00000   0.00000
 This molecule is a prolate symmetric top.
 Rotational symmetry number  3.
 Rotational temperatures (Kelvin)      4.07439     0.96020     0.96020
 Rotational constants (GHZ):          84.89654    20.00738    20.00738
 Zero-point vibrational energy     207579.4 (Joules/Mol)
                                   49.61266 (Kcal/Mol)
 Warning -- explicit consideration of   1 degrees of freedom as
           vibrations may cause significant error
 Vibrational temperatures:    408.19  1310.86  1310.86  1320.62  1841.01
          (Kelvin)           1841.01  2113.10  2159.26  2159.26  2199.46
                             2402.53  2402.53  4436.47  4577.53  4577.53
                             4888.36  4991.74  4991.74

 Zero-point correction=                           0.079063 (Hartree/Particle)
 Thermal correction to Energy=                    0.082539
 Thermal correction to Enthalpy=                  0.083483
 Thermal correction to Gibbs Free Energy=         0.056897
 Sum of electronic and zero-point Energies=            -96.179152
 Sum of electronic and thermal Energies=               -96.175676
 Sum of electronic and thermal Enthalpies=             -96.174732
 Sum of electronic and thermal Free Energies=          -96.201318

                     E (Thermal)             CV                S
                      KCal/Mol        Cal/Mol-Kelvin    Cal/Mol-Kelvin
 Total                   51.794              9.811             55.956
 Electronic               0.000              0.000              0.000
 Translational            0.889              2.981             36.326
 Rotational               0.889              2.981             17.603
 Vibrational             50.017              3.850              2.027
 Vibration     1          0.682              1.704              1.511

 Normal termination of Gaussian 09 at Thu Feb 26 00:56:59 2015.
