 Gaussian 09, Revision C.01,
 Gaussian 09:  EM64L-G09RevC.01 23-Sep-2011

 ----------------------------------------------------------------------
 #p opt(VeryTight,CalcAll,Raman) Integral(Grid=UltraFine) b3lyp/AUG-cc-
 pVQZ
 ----------------------------------------------------------------------

 (Enter /apps/gaussian/g09_c01/g09/l101.exe)
 ----------------------------------------------
 Autjob by noodles.sh | Great noodly basis sets
 ----------------------------------------------
 Charge =  1 Multiplicity = 1

 SCF Done:  E(RB3LYP) =  -96.2654036486     A.U. after    8 cycles
 SCF Done:  E(RB3LYP) =  -96.2655603006     A.U. after    7 cycles
 SCF Done:  E(RB3LYP) =  -96.2655603461     A.U. after    4 cycles
 SCF Done:  E(RB3LYP) =  -96.2655603461     A.U. after    1 cycles
 SCF Done:  E(RB3LYP) =  -96.2655603461     A.U. after    1 cycles
 Optimization completed.
    -- Stationary point found.

                         Standard orientation:
 ---------------------------------------------------------------------
 Center     Atomic      Atomic             Coordinates (Angstroms)
 Number     Number       Type             X           Y           Z
 ---------------------------------------------------------------------
      1          6           0        0.000000    0.000000   -0.800869
      2          1           0        1.025675   -0.095463   -1.140619
      3          1           0       -0.595511   -0.840529   -1.140619
      4          1           0       -0.430164    0.935992   -1.140619
      5          7           0        0.000000    0.000000    0.710787
      6          1           0       -0.947281    0.088128    1.083852
      7          1           0        0.397319   -0.864433    1.083852
      8          1           0        0.549962    0.776305    1.083852
 ---------------------------------------------------------------------

 The electronic state is 1-A.
 Alpha  occ. eigenvalues --  -14.66388 -10.43634  -1.22651  -0.93974  -0.81030
 Alpha  occ. eigenvalues --   -0.81030  -0.71149  -0.63162  -0.63162
 Alpha virt. eigenvalues --   -0.21859  -0.15305  -0.15204  -0.15204  -0.11312
 Alpha virt. eigenvalues --   -0.11312  -0.10092  -0.07755  -0.07755  -0.07652
 Alpha virt. eigenvalues --   -0.05873  -0.05592  -0.05592  -0.03668  -0.03244

 Mulliken atomic charges:
              1
     1  C   -0.713696
     2  H    0.319166
     3  H    0.319166
     4  H    0.319166
     5  N   -0.153135
     6  H    0.303112
     7  H    0.303112
     8  H    0.303112
 Sum of Mulliken atomic charges =   1.00000

 Dipole moment (field-independent basis, Debye):
    X=              0.0000    Y=              0.0000    Z=              2.1571  Tot=              2.1571
 Quadrupole moment (field-independent basis, Debye-Ang):
   XX=            -10.1998   YY=            -10.1998   ZZ=             -6.8053
   XY=              0.0000   XZ=              0.0000   YZ=              0.0000

  Exact polarizability:  19.249   0.000  19.249   0.000   0.000  22.391
 Approx polarizability:  25.704   0.000  25.704   0.000   0.000  27.151

                     1                      2                      3
                     A                      E                      E
 Frequencies --   284.4515               912.0387               912.0388
 Red. masses --     1.0078                 1.0534                 1.0534
 Frc consts  --     0.0480                 0.5163                 0.5163
 IR Inten    --     0.0000                22.6347                22.6349
 Raman Activ --     0.0000                 0.0247                 0.0244

                     4                      5                      6
                     A                      E                      E
 Frequencies --   921.5490              1280.9077              1280.9078
 Red. masses --     5.1013                 1.4070                 1.4070
 Frc consts  --     2.5525                 1.3601                 1.3601
 IR Inten    --     7.5481                 3.8273                 3.8272
 Raman Activ --     8.2732                 0.6244                 0.6225

                     7                      8                      9
                     A                      E                      E
 Frequencies --  1471.5246              1501.5152              1501.5153
 Red. masses --     1.1400                 1.0366                 1.0366
 Frc consts  --     1.4544                 1.3770                 1.3770
 IR Inten    --     0.3622                20.8923                20.8925
 Raman Activ --     0.4289                 3.8074                 3.8085

                    10                     11                     12
                     A                      E                      E
 Frequencies --  1528.8923              1670.5580              1670.5581
 Red. masses --     1.1638                 1.0394                 1.0394
 Frc consts  --     1.6029                 1.7091                 1.7091
 IR Inten    --   109.5610                39.8939                39.8943
 Raman Activ --     0.9780                 3.8486                 3.8497

                    13                     14                     15
                     A                      E                      E
 Frequencies --  3082.4047              3180.9701              3180.9703
 Red. masses --     1.0296                 1.1109                 1.1109
 Frc consts  --     5.7637                 6.6230                 6.6230
 IR Inten    --     0.2253                 0.7445                 0.7446
 Raman Activ --   127.5887                33.3841                33.3728

                    16                     17                     18
                     A                      E                      E
 Frequencies --  3396.4853              3468.6223              3468.6223
 Red. masses --     1.0306                 1.0932                 1.0932
 Frc consts  --     7.0046                 7.7493                 7.7493
 IR Inten    --    45.2604               116.9468               116.9469
 Raman Activ --    87.6200                23.8782                23.8753

 - Thermochemistry -
 -------------------
 Temperature   298.150 Kelvin.  Pressure   1.00000 Atm.
 Atom     1 has atomic number  6 and mass  12.00000

 Molecular mass:    32.05002 amu.
 Principal axes and moments of inertia in atomic units:
                           1         2         3
     Eigenvalues --    21.22944  90.09145  90.09145
           X            0.00000   0.97014  -0.24254
           Y            0.00000   0.24254   0.97014
           Z            1.00000   0.00000   0.00000
 This molecule is a prolate symmetric top.
 Rotational symmetry number  3.
 Rotational temperatures (Kelvin)      4.07989     0.96140     0.96140
 Rotational constants (GHZ):          85.01124    20.03232    20.03232
 Zero-point vibrational energy     207639.0 (Joules/Mol)
                                   49.62691 (Kcal/Mol)
 Warning -- explicit consideration of   1 degrees of freedom as
           vibrations may cause significant error
 Vibrational temperatures:    409.26  1312.22  1312.22  1325.90  1842.94
          (Kelvin)           1842.94  2117.19  2160.34  2160.34  2199.73
                             2403.56  2403.56  4434.89  4576.70  4576.70
                             4886.78  4990.57  4990.57

 Zero-point correction=                           0.079086 (Hartree/Particle)
 Thermal correction to Energy=                    0.082560
 Thermal correction to Enthalpy=                  0.083504
 Thermal correction to Gibbs Free Energy=         0.056923
 Sum of electronic and zero-point Energies=            -96.186475
 Sum of electronic and thermal Energies=               -96.183001
 Sum of electronic and thermal Enthalpies=             -96.182057
 Sum of electronic and thermal Free Energies=          -96.208638

                     E (Thermal)             CV                S
                      KCal/Mol        Cal/Mol-Kelvin    Cal/Mol-Kelvin
 Total                   51.807              9.800             55.945
 Electronic               0.000              0.000              0.000
 Translational            0.889              2.981             36.326
 Rotational               0.889              2.981             17.600
 Vibrational             50.029              3.838              2.019
 Vibration     1          0.683              1.703              1.507

 Normal termination of Gaussian 09 at Thu Feb 26 05:16:56 2015.
