 Gaussian 09, Revision C.01,
 Gaussian 09:  EM64L-G09RevC.01 23-Sep-2011

 ----------------------------------------------------------------------
 #p opt(VeryTight,CalcAll,Raman) Integral(Grid=UltraFine) b3lyp/AUG-cc-
 pVDZ
 ----------------------------------------------------------------------

 (Enter /apps/gaussian/g09_c01/g09/l101.exe)
 ----------------------------------------------
 Autjob by noodles.sh | Great noodly basis sets
 ----------------------------------------------
 Charge =  1 Multiplicity = 1

 SCF Done:  E(RB3LYP) =  -96.2271936636     A.U. after    9 cycles
 SCF Done:  E(RB3LYP) =  -96.2272367888     A.U. after    7 cycles
 SCF Done:  E(RB3LYP) =  -96.2272367931     A.U. after    4 cycles
 Optimization completed.
    -- Stationary point found.

                         Standard orientation:
 ---------------------------------------------------------------------
 Center     Atomic      Atomic             Coordinates (Angstroms)
 Number     Number       Type             X           Y           Z
 ---------------------------------------------------------------------
      1          6           0        0.000000    0.000000   -0.802218
      2          1           0        1.034724   -0.096295   -1.142695
      3          1           0       -0.600756   -0.847950   -1.142695
      4          1           0       -0.433968    0.944245   -1.142695
      5          7           0        0.000000    0.000000    0.710964
      6          1           0       -0.950287    0.088418    1.088215
      7          1           0        0.398571   -0.867182    1.088215
      8          1           0        0.551716    0.778763    1.088215
 ---------------------------------------------------------------------

 The electronic state is 1-A.
 Alpha  occ. eigenvalues --  -14.68184 -10.45274  -1.22600  -0.93809  -0.80744
 Alpha  occ. eigenvalues --   -0.80744  -0.70931  -0.62860  -0.62860
 Alpha virt. eigenvalues --   -0.21935  -0.15378  -0.15210  -0.15210  -0.10781
 Alpha virt. eigenvalues --   -0.10781  -0.09929  -0.07103  -0.06852  -0.06852
 Alpha virt. eigenvalues --   -0.04547  -0.04547  -0.04407  -0.01663  -0.01518

 Mulliken atomic charges:
              1
     1  C    1.106067
     2  H   -0.190554
     3  H   -0.190554
     4  H   -0.190554
     5  N    0.153731
     6  H    0.103955
     7  H    0.103955
     8  H    0.103955
 Sum of Mulliken atomic charges =   1.00000

 Dipole moment (field-independent basis, Debye):
    X=              0.0000    Y=              0.0000    Z=              2.1648  Tot=              2.1648
 Quadrupole moment (field-independent basis, Debye-Ang):
   XX=            -10.2512   YY=            -10.2512   ZZ=             -6.8185
   XY=              0.0000   XZ=              0.0000   YZ=              0.0000

  Exact polarizability:  19.523   0.000  19.523   0.000   0.000  22.625
 Approx polarizability:  26.088   0.000  26.088   0.000   0.000  27.445

                     1                      2                      3
                     A                      E                      E
 Frequencies --   293.4525               906.5514               906.5518
 Red. masses --     1.0078                 1.0543                 1.0543
 Frc consts  --     0.0511                 0.5105                 0.5105
 IR Inten    --     0.0000                23.3245                23.3245
 Raman Activ --     0.0000                 0.0225                 0.0225

                     4                      5                      6
                     A                      E                      E
 Frequencies --   930.4814              1266.1682              1266.1692
 Red. masses --     5.0568                 1.4140                 1.4140
 Frc consts  --     2.5795                 1.3356                 1.3356
 IR Inten    --     7.0374                 3.7633                 3.7633
 Raman Activ --     8.5441                 0.6001                 0.5984

                     7                      8                      9
                     A                      E                      E
 Frequencies --  1447.8711              1474.7589              1474.7590
 Red. masses --     1.1433                 1.0353                 1.0353
 Frc consts  --     1.4122                 1.3267                 1.3267
 IR Inten    --     2.8053                21.7489                21.7488
 Raman Activ --     0.3308                 4.0358                 4.0362

                    10                     11                     12
                     A                      E                      E
 Frequencies --  1510.7525              1646.5461              1646.5461
 Red. masses --     1.1609                 1.0375                 1.0375
 Frc consts  --     1.5611                 1.6572                 1.6572
 IR Inten    --   105.7588                38.5701                38.5708
 Raman Activ --     1.0469                 4.0198                 4.0196

                    13                     14                     15
                     A                      E                      E
 Frequencies --  3089.3318              3197.4495              3197.4497
 Red. masses --     1.0300                 1.1109                 1.1109
 Frc consts  --     5.7918                 6.6916                 6.6916
 IR Inten    --     0.1128                 0.6932                 0.6932
 Raman Activ --   128.4262                34.6578                34.6595

                    16                     17                     18
                     A                      E                      E
 Frequencies --  3391.9940              3474.9180              3474.9181
 Red. masses --     1.0316                 1.0932                 1.0932
 Frc consts  --     6.9930                 7.7776                 7.7776
 IR Inten    --    44.7237               113.9258               113.9258
 Raman Activ --    89.1925                24.8011                24.8078

 - Thermochemistry -
 -------------------
 Temperature   298.150 Kelvin.  Pressure   1.00000 Atm.
 Atom     1 has atomic number  6 and mass  12.00000

 Molecular mass:    32.05002 amu.
 Principal axes and moments of inertia in atomic units:
                           1         2         3
     Eigenvalues --    21.49460  90.48304  90.48304
           X            0.00000  -0.21693   0.97619
           Y            0.00000   0.97619   0.21693
           Z            1.00000   0.00000   0.00000
 This molecule is a prolate symmetric top.
 Rotational symmetry number  3.
 Rotational temperatures (Kelvin)      4.02956     0.95724     0.95724
 Rotational constants (GHZ):          83.96253    19.94563    19.94563
 Zero-point vibrational energy     206934.0 (Joules/Mol)
                                   49.45842 (Kcal/Mol)
 Warning -- explicit consideration of   1 degrees of freedom as
           vibrations may cause significant error
 Vibrational temperatures:    422.21  1304.32  1304.32  1338.75  1821.73
          (Kelvin)           1821.73  2083.16  2121.85  2121.85  2173.63
                             2369.01  2369.01  4444.85  4600.41  4600.41
                             4880.32  4999.63  4999.63

 Zero-point correction=                           0.078817 (Hartree/Particle)
 Thermal correction to Energy=                    0.082284
 Thermal correction to Enthalpy=                  0.083228
 Thermal correction to Gibbs Free Energy=         0.056657
 Sum of electronic and zero-point Energies=            -96.148420
 Sum of electronic and thermal Energies=               -96.144953
 Sum of electronic and thermal Enthalpies=             -96.144008
 Sum of electronic and thermal Free Energies=          -96.170580

                     E (Thermal)             CV                S
                      KCal/Mol        Cal/Mol-Kelvin    Cal/Mol-Kelvin
 Total                   51.634              9.835             55.924
 Electronic               0.000              0.000              0.000
 Translational            0.889              2.981             36.326
 Rotational               0.889              2.981             17.621
 Vibrational             49.857              3.874              1.977
 Vibration     1          0.688              1.686              1.454

 Normal termination of Gaussian 09 at Thu Feb 26 00:41:46 2015.
