 Gaussian 09, Revision C.01,
 Gaussian 09:  EM64L-G09RevC.01 23-Sep-2011

 ---------------------------------------------------------------------
 #p opt(VeryTight,CalcAll,Raman) Integral(Grid=UltraFine) b3lyp/6-31g*
 ---------------------------------------------------------------------

 (Enter /apps/gaussian/g09_c01/g09/l101.exe)
 ----------------------------------------------
 Autjob by noodles.sh | Great noodly basis sets
 ----------------------------------------------
 Charge =  1 Multiplicity = 1

 SCF Done:  E(RB3LYP) =  -96.2148666410     A.U. after   10 cycles
 SCF Done:  E(RB3LYP) =  -96.2148666596     A.U. after    6 cycles
 Optimization completed.
    -- Stationary point found.

                         Standard orientation:
 ---------------------------------------------------------------------
 Center     Atomic      Atomic             Coordinates (Angstroms)
 Number     Number       Type             X           Y           Z
 ---------------------------------------------------------------------
      1          6           0        0.000000    0.000000   -0.804446
      2          1           0        1.030986   -0.095942   -1.144527
      3          1           0       -0.598581   -0.844889   -1.144527
      4          1           0       -0.432405    0.940831   -1.144527
      5          7           0        0.000000    0.000000    0.712620
      6          1           0       -0.951973    0.088582    1.090638
      7          1           0        0.399273   -0.868724    1.090638
      8          1           0        0.552701    0.780142    1.090638
 ---------------------------------------------------------------------

 The electronic state is 1-A.
 Alpha  occ. eigenvalues --  -14.68885 -10.45259  -1.22573  -0.93799  -0.80931
 Alpha  occ. eigenvalues --   -0.80931  -0.70912  -0.62924  -0.62924
 Alpha virt. eigenvalues --   -0.18767  -0.11428  -0.11428  -0.08953  -0.05203
 Alpha virt. eigenvalues --   -0.03752  -0.03752   0.29229   0.30525   0.30525
 Alpha virt. eigenvalues --    0.45710   0.45710   0.45744   0.60090   0.60090

 Mulliken atomic charges:
              1
     1  C   -0.376181
     2  H    0.257784
     3  H    0.257784
     4  H    0.257784
     5  N   -0.723070
     6  H    0.441966
     7  H    0.441966
     8  H    0.441966
 Sum of Mulliken atomic charges =   1.00000

 Dipole moment (field-independent basis, Debye):
    X=              0.0000    Y=              0.0000    Z=              2.2862  Tot=              2.2862
 Quadrupole moment (field-independent basis, Debye-Ang):
   XX=            -10.1745   YY=            -10.1745   ZZ=             -6.9030
   XY=              0.0000   XZ=              0.0000   YZ=              0.0000

  Exact polarizability:  16.501   0.000  16.501   0.000   0.000  18.200
 Approx polarizability:  21.059   0.000  21.059   0.000   0.000  21.118

                     1                      2                      3
                     A                      E                      E
 Frequencies --   294.2415               921.8347               921.8348
 Red. masses --     1.0078                 1.0520                 1.0520
 Frc consts  --     0.0514                 0.5267                 0.5267
 IR Inten    --     0.0000                26.8344                26.8346
 Raman Activ --     0.0000                 0.0231                 0.0231

                     4                      5                      6
                     A                      E                      E
 Frequencies --   926.5463              1286.6194              1286.6194
 Red. masses --     5.0612                 1.4050                 1.4050
 Frc consts  --     2.5600                 1.3704                 1.3704
 IR Inten    --     9.2418                 7.2830                 7.2829
 Raman Activ --     6.6533                 2.8043                 2.8043

                     7                      8                      9
                     A                      E                      E
 Frequencies --  1477.1744              1518.8901              1518.8901
 Red. masses --     1.1430                 1.0373                 1.0373
 Frc consts  --     1.4695                 1.4100                 1.4100
 IR Inten    --     5.5795                29.0378                29.0380
 Raman Activ --     2.6069                12.6286                12.6285

                    10                     11                     12
                     A                      E                      E
 Frequencies --  1564.1761              1704.3083              1704.3084
 Red. masses --     1.1614                 1.0401                 1.0401
 Frc consts  --     1.6741                 1.7800                 1.7800
 IR Inten    --   118.2356                49.6489                49.6490
 Raman Activ --     2.6240                 8.8643                 8.8643

                    13                     14                     15
                     A                      E                      E
 Frequencies --  3115.3104              3220.3203              3220.3204
 Red. masses --     1.0296                 1.1118                 1.1118
 Frc consts  --     5.8873                 6.7933                 6.7933
 IR Inten    --     0.1006                 0.8521                 0.8521
 Raman Activ --    88.5225                43.8365                43.8367

                    16                     17                     18
                     A                      E                      E
 Frequencies --  3392.6240              3478.2551              3478.2552
 Red. masses --     1.0316                 1.0942                 1.0942
 Frc consts  --     6.9961                 7.7993                 7.7993
 IR Inten    --    46.6709               122.7214               122.7214
 Raman Activ --    67.5048                34.1477                34.1478

 - Thermochemistry -
 -------------------
 Temperature   298.150 Kelvin.  Pressure   1.00000 Atm.
 Atom     1 has atomic number  6 and mass  12.00000

 Molecular mass:    32.05002 amu.
 Principal axes and moments of inertia in atomic units:
                           1         2         3
     Eigenvalues --    21.44544  90.83204  90.83204
           X            0.00000   0.00000   1.00000
           Y            0.00000   1.00000   0.00000
           Z            1.00000   0.00000   0.00000
 This molecule is a prolate symmetric top.
 Rotational symmetry number  3.
 Rotational temperatures (Kelvin)      4.03880     0.95356     0.95356
 Rotational constants (GHZ):          84.15500    19.86899    19.86899
 Zero-point vibrational energy     209529.1 (Joules/Mol)
                                   50.07865 (Kcal/Mol)
 Warning -- explicit consideration of   1 degrees of freedom as
           vibrations may cause significant error
 Vibrational temperatures:    423.35  1326.31  1326.31  1333.09  1851.16
          (Kelvin)           1851.16  2125.32  2185.34  2185.34  2250.50
                             2452.12  2452.12  4482.23  4633.32  4633.32
                             4881.22  5004.43  5004.43

 Zero-point correction=                           0.079805 (Hartree/Particle)
 Thermal correction to Energy=                    0.083260
 Thermal correction to Enthalpy=                  0.084204
 Thermal correction to Gibbs Free Energy=         0.057647
 Sum of electronic and zero-point Energies=            -96.135061
 Sum of electronic and thermal Energies=               -96.131607
 Sum of electronic and thermal Enthalpies=             -96.130663
 Sum of electronic and thermal Free Energies=          -96.157220

                     E (Thermal)             CV                S
                      KCal/Mol        Cal/Mol-Kelvin    Cal/Mol-Kelvin
 Total                   52.246              9.716             55.895
 Electronic               0.000              0.000              0.000
 Translational            0.889              2.981             36.326
 Rotational               0.889              2.981             17.626
 Vibrational             50.469              3.754              1.942
 Vibration     1          0.689              1.684              1.449

 Normal termination of Gaussian 09 at Thu Feb 26 00:00:46 2015.
