 Gaussian 09, Revision C.01,
 Gaussian 09:  EM64L-G09RevC.01 23-Sep-2011

 ----------------------------------------------------------------------
 #p opt(VeryTight,CalcAll,Raman) Integral(Grid=UltraFine) CAM-b3lyp/AUG
 -cc-pVDZ
 ----------------------------------------------------------------------

 (Enter /apps/gaussian/g09_c01/g09/l101.exe)
 ----------------------------------------------
 Autjob by noodles.sh | Great noodly basis sets
 ----------------------------------------------
 Charge =  1 Multiplicity = 1

 SCF Done:  E(RCAM-B3LYP) =  -96.1682163659     A.U. after    9 cycles
 SCF Done:  E(RCAM-B3LYP) =  -96.1683263182     A.U. after    8 cycles
 SCF Done:  E(RCAM-B3LYP) =  -96.1683264369     A.U. after    6 cycles
 SCF Done:  E(RCAM-B3LYP) =  -96.1683264369     A.U. after    3 cycles
 Optimization completed.
    -- Stationary point found.

                         Standard orientation:
 ---------------------------------------------------------------------
 Center     Atomic      Atomic             Coordinates (Angstroms)
 Number     Number       Type             X           Y           Z
 ---------------------------------------------------------------------
      1          6           0        0.000000    0.000000   -0.797003
      2          1           0        1.033086   -0.096138   -1.140125
      3          1           0       -0.599801   -0.846609   -1.140125
      4          1           0       -0.433285    0.942748   -1.140125
      5          7           0        0.000000    0.000000    0.707250
      6          1           0       -0.949720    0.088371    1.083882
      7          1           0        0.398329   -0.866667    1.083882
      8          1           0        0.551391    0.778296    1.083882
 ---------------------------------------------------------------------

 The electronic state is 1-A.
 Alpha  occ. eigenvalues --  -14.75375 -10.52338  -1.30772  -1.01523  -0.87713
 Alpha  occ. eigenvalues --   -0.87713  -0.77561  -0.69161  -0.69161
 Alpha virt. eigenvalues --   -0.18104  -0.12070  -0.12016  -0.12016  -0.07598
 Alpha virt. eigenvalues --   -0.07598  -0.07130  -0.04205  -0.04205  -0.02950
 Alpha virt. eigenvalues --   -0.02247  -0.01167  -0.01167   0.00821   0.00821

 Mulliken atomic charges:
              1
     1  C    1.094517
     2  H   -0.192164
     3  H   -0.192164
     4  H   -0.192164
     5  N    0.161633
     6  H    0.106781
     7  H    0.106781
     8  H    0.106781
 Sum of Mulliken atomic charges =   1.00000

 Dipole moment (field-independent basis, Debye):
    X=              0.0000    Y=              0.0000    Z=              2.1865  Tot=              2.1865
 Quadrupole moment (field-independent basis, Debye-Ang):
   XX=            -10.2692   YY=            -10.2692   ZZ=             -6.8804
   XY=              0.0000   XZ=              0.0000   YZ=              0.0000

  Exact polarizability:  19.404   0.000  19.404   0.000   0.000  22.295
 Approx polarizability:  21.973   0.000  21.973   0.000   0.000  22.801

                     1                      2                      3
                     A                      E                      E
 Frequencies --   294.9948               911.6542               911.6545
 Red. masses --     1.0078                 1.0547                 1.0547
 Frc consts  --     0.0517                 0.5164                 0.5164
 IR Inten    --     0.0000                24.4200                24.4201
 Raman Activ --     0.0000                 0.0185                 0.0185

                     4                      5                      6
                     A                      E                      E
 Frequencies --   963.7953              1273.5203              1273.5210
 Red. masses --     4.7684                 1.4174                 1.4174
 Frc consts  --     2.6097                 1.3545                 1.3545
 IR Inten    --     6.2749                 3.5095                 3.5095
 Raman Activ --     8.6707                 0.5770                 0.5768

                     7                      8                      9
                     A                      E                      E
 Frequencies --  1456.1734              1481.2212              1481.2214
 Red. masses --     1.1487                 1.0348                 1.0348
 Frc consts  --     1.4352                 1.3377                 1.3377
 IR Inten    --     4.8339                23.8492                23.8484
 Raman Activ --     0.2797                 4.0165                 4.0166

                    10                     11                     12
                     A                      E                      E
 Frequencies --  1519.2672              1647.9300              1647.9301
 Red. masses --     1.1697                 1.0368                 1.0368
 Frc consts  --     1.5907                 1.6589                 1.6589
 IR Inten    --   115.4930                40.3945                40.3946
 Raman Activ --     0.8066                 3.9181                 3.9180

                    13                     14                     15
                     A                      E                      E
 Frequencies --  3110.0754              3220.0052              3220.0054
 Red. masses --     1.0309                 1.1112                 1.1112
 Frc consts  --     5.8749                 6.7883                 6.7883
 IR Inten    --     0.2355                 1.3027                 1.3027
 Raman Activ --   125.3389                33.4154                33.4152

                    16                     17                     18
                     A                      E                      E
 Frequencies --  3416.3976              3499.1136              3499.1137
 Red. masses --     1.0321                 1.0936                 1.0936
 Frc consts  --     7.0976                 7.8887                 7.8887
 IR Inten    --    51.4940               125.2755               125.2756
 Raman Activ --    86.0285                23.5501                23.5515

 - Thermochemistry -
 -------------------
 Temperature   298.150 Kelvin.  Pressure   1.00000 Atm.
 Atom     1 has atomic number  6 and mass  12.00000

 Molecular mass:    32.05002 amu.
 Principal axes and moments of inertia in atomic units:
                           1         2         3
     Eigenvalues --    21.44597  89.67274  89.67274
           X            0.00000   0.97619  -0.21693
           Y            0.00000   0.21693   0.97619
           Z            1.00000   0.00000   0.00000
 This molecule is a prolate symmetric top.
 Rotational symmetry number  3.
 Rotational temperatures (Kelvin)      4.03870     0.96589     0.96589
 Rotational constants (GHZ):          84.15291    20.12586    20.12586
 Zero-point vibrational energy     208315.3 (Joules/Mol)
                                   49.78855 (Kcal/Mol)
 Warning -- explicit consideration of   1 degrees of freedom as
           vibrations may cause significant error
 Vibrational temperatures:    424.43  1311.67  1311.67  1386.68  1832.31
          (Kelvin)           1832.31  2095.11  2131.14  2131.14  2185.88
                             2371.00  2371.00  4474.70  4632.86  4632.86
                             4915.43  5034.44  5034.44

 Zero-point correction=                           0.079343 (Hartree/Particle)
 Thermal correction to Energy=                    0.082799
 Thermal correction to Enthalpy=                  0.083743
 Thermal correction to Gibbs Free Energy=         0.057197
 Sum of electronic and zero-point Energies=            -96.088983
 Sum of electronic and thermal Energies=               -96.085527
 Sum of electronic and thermal Enthalpies=             -96.084583
 Sum of electronic and thermal Free Energies=          -96.111129

                     E (Thermal)             CV                S
                      KCal/Mol        Cal/Mol-Kelvin    Cal/Mol-Kelvin
 Total                   51.957              9.761             55.871
 Electronic               0.000              0.000              0.000
 Translational            0.889              2.981             36.326
 Rotational               0.889              2.981             17.600
 Vibrational             50.180              3.799              1.944
 Vibration     1          0.689              1.683              1.445

 Normal termination of Gaussian 09 at Thu Feb 26 00:45:15 2015.
