 Gaussian 09, Revision C.01,
 Gaussian 09:  EM64L-G09RevC.01 23-Sep-2011

 ----------------------------------------------------------------------
 #p opt(VeryTight,CalcAll,Raman) Integral(Grid=UltraFine) CAM-b3lyp/AUG
 -cc-pVQZ
 ----------------------------------------------------------------------

 (Enter /apps/gaussian/g09_c01/g09/l101.exe)
 ----------------------------------------------
 Autjob by noodles.sh | Great noodly basis sets
 ----------------------------------------------
 Charge =  1 Multiplicity = 1

 SCF Done:  E(RCAM-B3LYP) =  -96.2067273205     A.U. after    9 cycles
 SCF Done:  E(RCAM-B3LYP) =  -96.2070099575     A.U. after    7 cycles
 SCF Done:  E(RCAM-B3LYP) =  -96.2070102166     A.U. after    5 cycles
 SCF Done:  E(RCAM-B3LYP) =  -96.2070102166     A.U. after    2 cycles
 SCF Done:  E(RCAM-B3LYP) =  -96.2070102166     A.U. after    1 cycles
 SCF Done:  E(RCAM-B3LYP) =  -96.2070102166     A.U. after    1 cycles
 Optimization completed.
    -- Stationary point found.

                         Standard orientation:
 ---------------------------------------------------------------------
 Center     Atomic      Atomic             Coordinates (Angstroms)
 Number     Number       Type             X           Y           Z
 ---------------------------------------------------------------------
      1          6           0        0.000000    0.000000   -0.795594
      2          1           0        1.024169   -0.095316   -1.138010
      3          1           0       -0.594630   -0.839298   -1.138010
      4          1           0       -0.429538    0.934614   -1.138010
      5          7           0        0.000000    0.000000    0.706973
      6          1           0       -0.946743    0.088086    1.079592
      7          1           0        0.397086   -0.863946    1.079592
      8          1           0        0.549656    0.775860    1.079592
 ---------------------------------------------------------------------

 The electronic state is 1-A.
 Alpha  occ. eigenvalues --  -14.73478 -10.50647  -1.30825  -1.01697  -0.88010
 Alpha  occ. eigenvalues --   -0.88010  -0.77798  -0.69482  -0.69482
 Alpha virt. eigenvalues --   -0.18041  -0.12058  -0.12030  -0.12030  -0.08171
 Alpha virt. eigenvalues --   -0.08171  -0.07668  -0.05731  -0.05731  -0.04600
 Alpha virt. eigenvalues --   -0.03556  -0.03230  -0.03230  -0.01410  -0.01268

 Mulliken atomic charges:
              1
     1  C   -0.665380
     2  H    0.310504
     3  H    0.310504
     4  H    0.310504
     5  N   -0.190333
     6  H    0.308067
     7  H    0.308067
     8  H    0.308067
 Sum of Mulliken atomic charges =   1.00000

 Dipole moment (field-independent basis, Debye):
    X=              0.0000    Y=              0.0000    Z=              2.1775  Tot=              2.1775
 Quadrupole moment (field-independent basis, Debye-Ang):
   XX=            -10.2194   YY=            -10.2194   ZZ=             -6.8668
   XY=              0.0000   XZ=              0.0000   YZ=              0.0000

  Exact polarizability:  19.136   0.000  19.136   0.000   0.000  22.064
 Approx polarizability:  21.679   0.000  21.679   0.000   0.000  22.578

                     1                      2                      3
                     A                      E                      E
 Frequencies --   286.8780               917.7682               917.7683
 Red. masses --     1.0078                 1.0538                 1.0538
 Frc consts  --     0.0489                 0.5230                 0.5230
 IR Inten    --     0.0000                23.6654                23.6655
 Raman Activ --     0.0000                 0.0197                 0.0197

                     4                      5                      6
                     A                      E                      E
 Frequencies --   955.2266              1288.7137              1288.7138
 Red. masses --     4.8247                 1.4110                 1.4110
 Frc consts  --     2.5938                 1.3807                 1.3807
 IR Inten    --     6.8627                 3.5866                 3.5865
 Raman Activ --     8.3720                 0.5999                 0.5990

                     7                      8                      9
                     A                      E                      E
 Frequencies --  1480.5287              1507.5212              1507.5213
 Red. masses --     1.1466                 1.0359                 1.0359
 Frc consts  --     1.4808                 1.3870                 1.3870
 IR Inten    --     1.1546                22.8541                22.8544
 Raman Activ --     0.3569                 3.8052                 3.8067

                    10                     11                     12
                     A                      E                      E
 Frequencies --  1537.4328              1671.8738              1671.8738
 Red. masses --     1.1704                 1.0387                 1.0387
 Frc consts  --     1.6300                 1.7107                 1.7107
 IR Inten    --   120.0964                41.7011                41.7013
 Raman Activ --     0.7668                 3.7453                 3.7450

                    13                     14                     15
                     A                      E                      E
 Frequencies --  3101.5454              3201.8277              3201.8279
 Red. masses --     1.0305                 1.1112                 1.1112
 Frc consts  --     5.8404                 6.7119                 6.7119
 IR Inten    --     0.3776                 1.3261                 1.3262
 Raman Activ --   124.8058                32.1848                32.1806

                    16                     17                     18
                     A                      E                      E
 Frequencies --  3419.8651              3491.6656              3491.6657
 Red. masses --     1.0311                 1.0935                 1.0935
 Frc consts  --     7.1048                 7.8548                 7.8548
 IR Inten    --    51.7249               128.1218               128.1219
 Raman Activ --    84.4703                22.6561                22.6541

 - Thermochemistry -
 -------------------
 Temperature   298.150 Kelvin.  Pressure   1.00000 Atm.
 Atom     1 has atomic number  6 and mass  12.00000

 Molecular mass:    32.05002 amu.
 Principal axes and moments of inertia in atomic units:
                           1         2         3
     Eigenvalues --    21.18470  89.27393  89.27393
           X            0.00000   0.28217   0.95937
           Y            0.00000   0.95937  -0.28217
           Z            1.00000   0.00000   0.00000
 This molecule is a prolate symmetric top.
 Rotational symmetry number  3.
 Rotational temperatures (Kelvin)      4.08851     0.97020     0.97020
 Rotational constants (GHZ):          85.19078    20.21577    20.21577
 Zero-point vibrational energy     208988.9 (Joules/Mol)
                                   49.94955 (Kcal/Mol)
 Warning -- explicit consideration of   1 degrees of freedom as
           vibrations may cause significant error
 Vibrational temperatures:    412.75  1320.46  1320.46  1374.36  1854.17
          (Kelvin)           1854.17  2130.15  2168.98  2168.98  2212.02
                             2405.45  2405.45  4462.43  4606.71  4606.71
                             4920.42  5023.72  5023.72

 Zero-point correction=                           0.079600 (Hartree/Particle)
 Thermal correction to Energy=                    0.083061
 Thermal correction to Enthalpy=                  0.084005
 Thermal correction to Gibbs Free Energy=         0.057453
 Sum of electronic and zero-point Energies=            -96.127411
 Sum of electronic and thermal Energies=               -96.123949
 Sum of electronic and thermal Enthalpies=             -96.123005
 Sum of electronic and thermal Free Energies=          -96.149557

                     E (Thermal)             CV                S
                      KCal/Mol        Cal/Mol-Kelvin    Cal/Mol-Kelvin
 Total                   52.122              9.722             55.884
 Electronic               0.000              0.000              0.000
 Translational            0.889              2.981             36.326
 Rotational               0.889              2.981             17.579
 Vibrational             50.344              3.760              1.979
 Vibration     1          0.684              1.698              1.492

 Normal termination of Gaussian 09 at Thu Feb 26 07:54:47 2015.
