 Gaussian 09, Revision C.01,
 Gaussian 09:  EM64L-G09RevC.01 23-Sep-2011

 ----------------------------------------------------------------------
 #p opt(VeryTight,CalcAll,Raman) Integral(Grid=UltraFine) CAM-b3lyp/6-3
 1g*
 ----------------------------------------------------------------------

 (Enter /apps/gaussian/g09_c01/g09/l101.exe)
 ----------------------------------------------
 Autjob by noodles.sh | Great noodly basis sets
 ----------------------------------------------
 Charge =  1 Multiplicity = 1

 SCF Done:  E(RCAM-B3LYP) =  -96.1560660956     A.U. after   11 cycles
 SCF Done:  E(RCAM-B3LYP) =  -96.1561049109     A.U. after    8 cycles
 SCF Done:  E(RCAM-B3LYP) =  -96.1561049352     A.U. after    6 cycles
 SCF Done:  E(RCAM-B3LYP) =  -96.1561049352     A.U. after    3 cycles
 Optimization completed.
    -- Stationary point found.

                         Standard orientation:
 ---------------------------------------------------------------------
 Center     Atomic      Atomic             Coordinates (Angstroms)
 Number     Number       Type             X           Y           Z
 ---------------------------------------------------------------------
      1          6           0        0.000000    0.000000   -0.799326
      2          1           0        1.029166   -0.095769   -1.142181
      3          1           0       -0.597521   -0.843399   -1.142181
      4          1           0       -0.431645    0.939168   -1.142181
      5          7           0        0.000000    0.000000    0.709002
      6          1           0       -0.951172    0.088512    1.086495
      7          1           0        0.398933   -0.867994    1.086495
      8          1           0        0.552239    0.779483    1.086495
 ---------------------------------------------------------------------

 The electronic state is 1-A.
 Alpha  occ. eigenvalues --  -14.76043 -10.52311  -1.30759  -1.01535  -0.87920
 Alpha  occ. eigenvalues --   -0.87920  -0.77577  -0.69264  -0.69264
 Alpha virt. eigenvalues --   -0.13695  -0.06095  -0.06095  -0.03047   0.00592
 Alpha virt. eigenvalues --    0.01599   0.01599   0.35029   0.36626   0.36626
 Alpha virt. eigenvalues --    0.51823   0.51823   0.52391   0.66609   0.66609

 Mulliken atomic charges:
              1
     1  C   -0.381234
     2  H    0.258810
     3  H    0.258810
     4  H    0.258810
     5  N   -0.732225
     6  H    0.445676
     7  H    0.445676
     8  H    0.445676
 Sum of Mulliken atomic charges =   1.00000

 Dipole moment (field-independent basis, Debye):
    X=              0.0000    Y=              0.0000    Z=              2.3053  Tot=              2.3053
 Quadrupole moment (field-independent basis, Debye-Ang):
   XX=            -10.2018   YY=            -10.2018   ZZ=             -6.9668
   XY=              0.0000   XZ=              0.0000   YZ=              0.0000

  Exact polarizability:  16.415   0.000  16.415   0.000   0.000  17.905
 Approx polarizability:  17.815   0.000  17.815   0.000   0.000  17.532

                     1                      2                      3
                     A                      E                      E
 Frequencies --   294.2776               927.7420               927.7420
 Red. masses --     1.0078                 1.0524                 1.0524
 Frc consts  --     0.0514                 0.5337                 0.5337
 IR Inten    --     0.0000                27.8114                27.8115
 Raman Activ --     0.0000                 0.0210                 0.0210

                     4                      5                      6
                     A                      E                      E
 Frequencies --   958.8601              1294.2004              1294.2005
 Red. masses --     4.7965                 1.4084                 1.4084
 Frc consts  --     2.5983                 1.3899                 1.3899
 IR Inten    --     8.5170                 6.9620                 6.9620
 Raman Activ --     6.8976                 2.6782                 2.6782

                     7                      8                      9
                     A                      E                      E
 Frequencies --  1486.8647              1525.3504              1525.3504
 Red. masses --     1.1479                 1.0366                 1.0366
 Frc consts  --     1.4952                 1.4210                 1.4210
 IR Inten    --     7.9356                31.2139                31.2141
 Raman Activ --     2.6217                12.7740                12.7739

                    10                     11                     12
                     A                      E                      E
 Frequencies --  1573.9327              1706.8230              1706.8230
 Red. masses --     1.1693                 1.0396                 1.0396
 Frc consts  --     1.7067                 1.7843                 1.7843
 IR Inten    --   129.6346                51.7130                51.7131
 Raman Activ --     2.2952                 8.7525                 8.7525

                    13                     14                     15
                     A                      E                      E
 Frequencies --  3137.6096              3244.6088              3244.6089
 Red. masses --     1.0305                 1.1122                 1.1122
 Frc consts  --     5.9769                 6.8984                 6.8984
 IR Inten    --     0.0182                 1.6935                 1.6936
 Raman Activ --    86.2187                42.8585                42.8586

                    16                     17                     18
                     A                      E                      E
 Frequencies --  3420.2456              3505.4045              3505.4045
 Red. masses --     1.0322                 1.0946                 1.0946
 Frc consts  --     7.1144                 7.9244                 7.9244
 IR Inten    --    54.0085               135.7356               135.7357
 Raman Activ --    64.6704                32.8430                32.8430

 - Thermochemistry -
 -------------------
 Temperature   298.150 Kelvin.  Pressure   1.00000 Atm.
 Atom     1 has atomic number  6 and mass  12.00000

 Molecular mass:    32.05002 amu.
 Principal axes and moments of inertia in atomic units:
                           1         2         3
     Eigenvalues --    21.38799  90.03874  90.03874
           X            0.00000   0.00000   1.00000
           Y            0.00000   1.00000   0.00000
           Z            1.00000   0.00000   0.00000
 This molecule is a prolate symmetric top.
 Rotational symmetry number  3.
 Rotational temperatures (Kelvin)      4.04965     0.96196     0.96196
 Rotational constants (GHZ):          84.38106    20.04405    20.04405
 Zero-point vibrational energy     211021.6 (Joules/Mol)
                                   50.43536 (Kcal/Mol)
 Warning -- explicit consideration of   1 degrees of freedom as
           vibrations may cause significant error
 Vibrational temperatures:    423.40  1334.81  1334.81  1379.58  1862.06
          (Kelvin)           1862.06  2139.26  2194.64  2194.64  2264.54
                             2455.73  2455.73  4514.31  4668.26  4668.26
                             4920.96  5043.49  5043.49

 Zero-point correction=                           0.080374 (Hartree/Particle)
 Thermal correction to Energy=                    0.083819
 Thermal correction to Enthalpy=                  0.084763
 Thermal correction to Gibbs Free Energy=         0.058227
 Sum of electronic and zero-point Energies=            -96.075731
 Sum of electronic and thermal Energies=               -96.072286
 Sum of electronic and thermal Enthalpies=             -96.071342
 Sum of electronic and thermal Free Energies=          -96.097878

                     E (Thermal)             CV                S
                      KCal/Mol        Cal/Mol-Kelvin    Cal/Mol-Kelvin
 Total                   52.597              9.644             55.850
 Electronic               0.000              0.000              0.000
 Translational            0.889              2.981             36.326
 Rotational               0.889              2.981             17.606
 Vibrational             50.820              3.682              1.918
 Vibration     1          0.689              1.684              1.449

 Normal termination of Gaussian 09 at Thu Feb 26 00:43:21 2015.
