 Gaussian 09, Revision C.01,
 Gaussian 09:  EM64L-G09RevC.01 23-Sep-2011

 ----------------------------------------------------------------------
 #p opt(VeryTight,CalcAll,Raman) Integral(Grid=UltraFine) CAM-b3lyp/AUG
 -cc-pVTZ
 ----------------------------------------------------------------------

 (Enter /apps/gaussian/g09_c01/g09/l101.exe)
 ----------------------------------------------
 Autjob by noodles.sh | Great noodly basis sets
 ----------------------------------------------
 Charge =  1 Multiplicity = 1

 SCF Done:  E(RCAM-B3LYP) =  -96.1993923334     A.U. after    9 cycles
 SCF Done:  E(RCAM-B3LYP) =  -96.1996318703     A.U. after    8 cycles
 SCF Done:  E(RCAM-B3LYP) =  -96.1996320659     A.U. after    6 cycles
 SCF Done:  E(RCAM-B3LYP) =  -96.1996320659     A.U. after    2 cycles
 SCF Done:  E(RCAM-B3LYP) =  -96.1996320659     A.U. after    1 cycles
 Optimization completed.
    -- Stationary point found.

                         Standard orientation:
 ---------------------------------------------------------------------
 Center     Atomic      Atomic             Coordinates (Angstroms)
 Number     Number       Type             X           Y           Z
 ---------------------------------------------------------------------
      1          6           0        0.000000    0.000000   -0.796196
      2          1           0        1.024884   -0.095378   -1.138189
      3          1           0       -0.595042   -0.839887   -1.138189
      4          1           0       -0.429842    0.935265   -1.138189
      5          7           0        0.000000    0.000000    0.707362
      6          1           0       -0.947350    0.088147    1.080069
      7          1           0        0.397337   -0.864503    1.080069
      8          1           0        0.550013    0.776356    1.080069
 ---------------------------------------------------------------------

 The electronic state is 1-A.
 Alpha  occ. eigenvalues --  -14.73828 -10.50870  -1.30813  -1.01676  -0.87958
 Alpha  occ. eigenvalues --   -0.87958  -0.77741  -0.69449  -0.69449
 Alpha virt. eigenvalues --   -0.18045  -0.12048  -0.12020  -0.12020  -0.07910
 Alpha virt. eigenvalues --   -0.07910  -0.07468  -0.05255  -0.05255  -0.04091
 Alpha virt. eigenvalues --   -0.03150  -0.02636  -0.02636  -0.00635  -0.00486

 Mulliken atomic charges:
              1
     1  C   -0.578695
     2  H    0.322487
     3  H    0.322487
     4  H    0.322487
     5  N    0.158202
     6  H    0.151010
     7  H    0.151010
     8  H    0.151010
 Sum of Mulliken atomic charges =   1.00000

 Dipole moment (field-independent basis, Debye):
    X=              0.0000    Y=              0.0000    Z=              2.1781  Tot=              2.1781
 Quadrupole moment (field-independent basis, Debye-Ang):
   XX=            -10.2229   YY=            -10.2229   ZZ=             -6.8723
   XY=              0.0000   XZ=              0.0000   YZ=              0.0000

  Exact polarizability:  19.163   0.000  19.163   0.000   0.000  22.104
 Approx polarizability:  21.709   0.000  21.709   0.000   0.000  22.619

                     1                      2                      3
                     A                      E                      E
 Frequencies --   286.1247               916.9170               916.9171
 Red. masses --     1.0078                 1.0537                 1.0537
 Frc consts  --     0.0486                 0.5220                 0.5220
 IR Inten    --     0.0000                23.6267                23.6267
 Raman Activ --     0.0000                 0.0196                 0.0196

                     4                      5                      6
                     A                      E                      E
 Frequencies --   951.9530              1287.5673              1287.5674
 Red. masses --     4.8362                 1.4108                 1.4108
 Frc consts  --     2.5822                 1.3780                 1.3780
 IR Inten    --     6.9802                 3.6846                 3.6846
 Raman Activ --     8.4104                 0.6031                 0.6030

                     7                      8                      9
                     A                      E                      E
 Frequencies --  1477.8900              1506.9978              1506.9978
 Red. masses --     1.1464                 1.0361                 1.0361
 Frc consts  --     1.4753                 1.3863                 1.3863
 IR Inten    --     1.1374                22.8281                22.8283
 Raman Activ --     0.3566                 3.8064                 3.8051

                    10                     11                     12
                     A                      E                      E
 Frequencies --  1537.3962              1671.3034              1671.3035
 Red. masses --     1.1701                 1.0387                 1.0387
 Frc consts  --     1.6295                 1.7095                 1.7095
 IR Inten    --   119.7671                41.6480                41.6480
 Raman Activ --     0.7648                 3.7610                 3.7616

                    13                     14                     15
                     A                      E                      E
 Frequencies --  3102.4738              3202.0912              3202.0914
 Red. masses --     1.0304                 1.1112                 1.1112
 Frc consts  --     5.8434                 6.7130                 6.7130
 IR Inten    --     0.3683                 1.3211                 1.3212
 Raman Activ --   124.9502                32.2726                32.2724

                    16                     17                     18
                     A                      E                      E
 Frequencies --  3421.0300              3492.4606              3492.4606
 Red. masses --     1.0310                 1.0934                 1.0934
 Frc consts  --     7.1093                 7.8576                 7.8576
 IR Inten    --    51.5879               127.7122               127.7124
 Raman Activ --    84.7107                22.7026                22.7034

 - Thermochemistry -
 -------------------
 Temperature   298.150 Kelvin.  Pressure   1.00000 Atm.
 Atom     1 has atomic number  6 and mass  12.00000

 Molecular mass:    32.05002 amu.
 Principal axes and moments of inertia in atomic units:
                           1         2         3
     Eigenvalues --    21.21320  89.37225  89.37225
           X            0.00000   0.93633  -0.35112
           Y            0.00000   0.35112   0.93633
           Z            1.00000   0.00000   0.00000
 This molecule is a prolate symmetric top.
 Rotational symmetry number  3.
 Rotational temperatures (Kelvin)      4.08301     0.96914     0.96914
 Rotational constants (GHZ):          85.07632    20.19353    20.19353
 Zero-point vibrational energy     208937.0 (Joules/Mol)
                                   49.93715 (Kcal/Mol)
 Warning -- explicit consideration of   1 degrees of freedom as
           vibrations may cause significant error
 Vibrational temperatures:    411.67  1319.24  1319.24  1369.65  1852.52
          (Kelvin)           1852.52  2126.35  2168.23  2168.23  2211.97
                             2404.63  2404.63  4463.76  4607.09  4607.09
                             4922.09  5024.87  5024.87

 Zero-point correction=                           0.079580 (Hartree/Particle)
 Thermal correction to Energy=                    0.083043
 Thermal correction to Enthalpy=                  0.083988
 Thermal correction to Gibbs Free Energy=         0.057430
 Sum of electronic and zero-point Energies=            -96.120052
 Sum of electronic and thermal Energies=               -96.116589
 Sum of electronic and thermal Enthalpies=             -96.115645
 Sum of electronic and thermal Free Energies=          -96.142202

                     E (Thermal)             CV                S
                      KCal/Mol        Cal/Mol-Kelvin    Cal/Mol-Kelvin
 Total                   52.110              9.732             55.895
 Electronic               0.000              0.000              0.000
 Translational            0.889              2.981             36.326
 Rotational               0.889              2.981             17.583
 Vibrational             50.333              3.770              1.986
 Vibration     1          0.684              1.699              1.497

 Normal termination of Gaussian 09 at Thu Feb 26 01:15:27 2015.
