 Gaussian 09, Revision C.01,
 Gaussian 09:  EM64L-G09RevC.01 23-Sep-2011

 ----------------------------------------------------------------------
 #p opt(VeryTight,CalcAll,Raman) Integral(Grid=UltraFine) PBEPBE/AUG-cc
 -pVDZ
 ----------------------------------------------------------------------

 (Enter /apps/gaussian/g09_c01/g09/l101.exe)
 ----------------------------------------------
 Autjob by noodles.sh | Great noodly basis sets
 ----------------------------------------------
 Charge =  1 Multiplicity = 1

 SCF Done:  E(RPBE-PBE) =  -96.0911477967     A.U. after    9 cycles
 SCF Done:  E(RPBE-PBE) =  -96.0914429838     A.U. after    7 cycles
 SCF Done:  E(RPBE-PBE) =  -96.0914432437     A.U. after    6 cycles
 SCF Done:  E(RPBE-PBE) =  -96.0914432437     A.U. after    3 cycles
 Optimization completed.
    -- Stationary point found.

                         Standard orientation:
 ---------------------------------------------------------------------
 Center     Atomic      Atomic             Coordinates (Angstroms)
 Number     Number       Type             X           Y           Z
 ---------------------------------------------------------------------
      1          6           0        0.000000    0.000000   -0.801397
      2          1           0        1.041016   -0.096854   -1.146105
      3          1           0       -0.604386   -0.853120   -1.146105
      4          1           0       -0.436630    0.949974   -1.146105
      5          7           0        0.000000    0.000000    0.710399
      6          1           0       -0.956475    0.089023    1.091301
      7          1           0        0.401141   -0.872844    1.091301
      8          1           0        0.555334    0.783820    1.091301
 ---------------------------------------------------------------------

 The electronic state is 1-A.
 Alpha  occ. eigenvalues --  -14.34782 -10.15982  -1.14149  -0.86826  -0.75026
 Alpha  occ. eigenvalues --   -0.75026  -0.66029  -0.57684  -0.57684
 Alpha virt. eigenvalues --   -0.23660  -0.16945  -0.16945  -0.16830  -0.12246
 Alpha virt. eigenvalues --   -0.12246  -0.11657  -0.09120  -0.07503  -0.07503
 Alpha virt. eigenvalues --   -0.06507  -0.06507  -0.04945  -0.02314  -0.01906

 Mulliken atomic charges:
              1
     1  C    0.930589
     2  H   -0.130600
     3  H   -0.130600
     4  H   -0.130600
     5  N    0.063548
     6  H    0.132554
     7  H    0.132554
     8  H    0.132554
 Sum of Mulliken atomic charges =   1.00000

 Dipole moment (field-independent basis, Debye):
    X=              0.0000    Y=              0.0000    Z=              2.1866  Tot=              2.1866
 Quadrupole moment (field-independent basis, Debye-Ang):
   XX=            -10.2383   YY=            -10.2383   ZZ=             -6.7728
   XY=              0.0000   XZ=              0.0000   YZ=              0.0000

  Exact polarizability:  20.021   0.000  20.021   0.000   0.000  23.185
 Approx polarizability:  30.454   0.000  30.454   0.000   0.000  32.291

                     1                      2                      3
                     A                      E                      E
 Frequencies --   291.4697               883.8123               883.8128
 Red. masses --     1.0078                 1.0548                 1.0548
 Frc consts  --     0.0504                 0.4854                 0.4854
 IR Inten    --     0.0000                24.0218                24.0217
 Raman Activ --     0.0000                 0.0290                 0.0290

                     4                      5                      6
                     A                      E                      E
 Frequencies --   932.3262              1227.1406              1227.1423
 Red. masses --     5.1240                 1.4235                 1.4235
 Frc consts  --     2.6242                 1.2630                 1.2630
 IR Inten    --     4.3963                 3.0672                 3.0674
 Raman Activ --     7.3871                 0.5155                 0.5153

                     7                      8                      9
                     A                      E                      E
 Frequencies --  1398.8364              1428.0464              1428.0465
 Red. masses --     1.1443                 1.0345                 1.0345
 Frc consts  --     1.3192                 1.2429                 1.2429
 IR Inten    --     4.3728                22.3603                22.3609
 Raman Activ --     0.3944                 4.0818                 4.0817

                    10                     11                     12
                     A                      E                      E
 Frequencies --  1463.6049              1599.6207              1599.6208
 Red. masses --     1.1556                 1.0363                 1.0363
 Frc consts  --     1.4585                 1.5623                 1.5623
 IR Inten    --    93.2719                36.4345                36.4353
 Raman Activ --     1.8993                 4.2538                 4.2538

                    13                     14                     15
                     A                      E                      E
 Frequencies --  3026.8792              3138.5827              3138.5828
 Red. masses --     1.0308                 1.1101                 1.1101
 Frc consts  --     5.5643                 6.4431                 6.4431
 IR Inten    --     0.3777                 1.0749                 1.0749
 Raman Activ --   132.1258                35.0594                35.0585

                    16                     17                     18
                     A                      E                      E
 Frequencies --  3316.7291              3401.9142              3401.9144
 Red. masses --     1.0314                 1.0926                 1.0926
 Frc consts  --     6.6852                 7.4502                 7.4502
 IR Inten    --    38.1667               107.6225               107.6229
 Raman Activ --    94.3479                25.5369                25.5372

 - Thermochemistry -
 -------------------
 Temperature   298.150 Kelvin.  Pressure   1.00000 Atm.
 Atom     1 has atomic number  6 and mass  12.00000

 Molecular mass:    32.05002 amu.
 Principal axes and moments of inertia in atomic units:
                           1         2         3
     Eigenvalues --    21.76535  90.67867  90.67867
           X            0.00000  -0.21693   0.97619
           Y            0.00000   0.97619   0.21693
           Z            1.00000   0.00000   0.00000
 This molecule is a prolate symmetric top.
 Rotational symmetry number  3.
 Rotational temperatures (Kelvin)      3.97943     0.95517     0.95517
 Rotational constants (GHZ):          82.91807    19.90260    19.90260
 Zero-point vibrational energy     202097.6 (Joules/Mol)
                                   48.30249 (Kcal/Mol)
 Warning -- explicit consideration of   1 degrees of freedom as
           vibrations may cause significant error
 Vibrational temperatures:    419.36  1271.61  1271.61  1341.41  1765.58
          (Kelvin)           1765.58  2012.61  2054.64  2054.64  2105.80
                             2301.49  2301.49  4355.00  4515.71  4515.71
                             4772.03  4894.59  4894.59

 Zero-point correction=                           0.076975 (Hartree/Particle)
 Thermal correction to Energy=                    0.080464
 Thermal correction to Enthalpy=                  0.081408
 Thermal correction to Gibbs Free Energy=         0.054799
 Sum of electronic and zero-point Energies=            -96.014468
 Sum of electronic and thermal Energies=               -96.010979
 Sum of electronic and thermal Enthalpies=             -96.010035
 Sum of electronic and thermal Free Energies=          -96.036644

                     E (Thermal)             CV                S
                      KCal/Mol        Cal/Mol-Kelvin    Cal/Mol-Kelvin
 Total                   50.492             10.019             56.003
 Electronic               0.000              0.000              0.000
 Translational            0.889              2.981             36.326
 Rotational               0.889              2.981             17.637
 Vibrational             48.714              4.057              2.039
 Vibration     1          0.687              1.690              1.465

 Normal termination of Gaussian 09 at Thu Feb 26 00:57:05 2015.
