 Gaussian 09, Revision C.01,
 Gaussian 09:  EM64L-G09RevC.01 23-Sep-2011

 ----------------------------------------------------------------------
 #p opt(VeryTight,CalcAll,Raman) Integral(Grid=UltraFine) PBEPBE/6-31g*
 ----------------------------------------------------------------------

 (Enter /apps/gaussian/g09_c01/g09/l101.exe)
 ----------------------------------------------
 Autjob by noodles.sh | Great noodly basis sets
 ----------------------------------------------
 Charge =  1 Multiplicity = 1

 SCF Done:  E(RPBE-PBE) =  -96.0780338240     A.U. after   10 cycles
 SCF Done:  E(RPBE-PBE) =  -96.0782774726     A.U. after    8 cycles
 SCF Done:  E(RPBE-PBE) =  -96.0782776120     A.U. after    6 cycles
 SCF Done:  E(RPBE-PBE) =  -96.0782776120     A.U. after    3 cycles
 Optimization completed.
    -- Stationary point found.

                         Standard orientation:
 ---------------------------------------------------------------------
 Center     Atomic      Atomic             Coordinates (Angstroms)
 Number     Number       Type             X           Y           Z
 ---------------------------------------------------------------------
      1          6           0        0.000000    0.000000   -0.803279
      2          1           0        1.037789   -0.096544   -1.148544
      3          1           0       -0.602504   -0.850479   -1.148544
      4          1           0       -0.435285    0.947024   -1.148544
      5          7           0        0.000000    0.000000    0.712056
      6          1           0       -0.958445    0.089217    1.093639
      7          1           0        0.401958   -0.874646    1.093639
      8          1           0        0.556487    0.785429    1.093639
 ---------------------------------------------------------------------

 The electronic state is 1-A.
 Alpha  occ. eigenvalues --  -14.35673 -10.16232  -1.14150  -0.86791  -0.75203
 Alpha  occ. eigenvalues --   -0.75203  -0.65974  -0.57666  -0.57666
 Alpha virt. eigenvalues --   -0.21173  -0.14355  -0.14355  -0.12266  -0.08186
 Alpha virt. eigenvalues --   -0.06523  -0.06523   0.25658   0.27390   0.27390
 Alpha virt. eigenvalues --    0.41247   0.42090   0.42090   0.54808   0.54808

 Mulliken atomic charges:
              1
     1  C   -0.426772
     2  H    0.269770
     3  H    0.269770
     4  H    0.269770
     5  N   -0.712022
     6  H    0.443162
     7  H    0.443162
     8  H    0.443162
 Sum of Mulliken atomic charges =   1.00000

 Dipole moment (field-independent basis, Debye):
    X=              0.0000    Y=              0.0000    Z=              2.3118  Tot=              2.3118
 Quadrupole moment (field-independent basis, Debye-Ang):
   XX=            -10.1420   YY=            -10.1420   ZZ=             -6.8478
   XY=              0.0000   XZ=              0.0000   YZ=              0.0000

  Exact polarizability:  16.806   0.000  16.806   0.000   0.000  18.578
 Approx polarizability:  24.522   0.000  24.522   0.000   0.000  24.948

                     1                      2                      3
                     A                      E                      E
 Frequencies --   295.9978               901.3910               901.3911
 Red. masses --     1.0078                 1.0524                 1.0524
 Frc consts  --     0.0520                 0.5038                 0.5038
 IR Inten    --     0.0000                28.5484                28.5484
 Raman Activ --     0.0000                 0.0259                 0.0259

                     4                      5                      6
                     A                      E                      E
 Frequencies --   928.4130              1249.7885              1249.7886
 Red. masses --     5.1295                 1.4158                 1.4158
 Frc consts  --     2.6050                 1.3029                 1.3029
 IR Inten    --     5.9560                 6.0438                 6.0438
 Raman Activ --     5.4227                 2.5862                 2.5862

                     7                      8                      9
                     A                      E                      E
 Frequencies --  1431.0548              1474.2387              1474.2388
 Red. masses --     1.1444                 1.0360                 1.0360
 Frc consts  --     1.3808                 1.3266                 1.3266
 IR Inten    --     9.3320                31.4485                31.4487
 Raman Activ --     2.8509                12.7899                12.7898

                    10                     11                     12
                     A                      E                      E
 Frequencies --  1520.5744              1661.7498              1661.7499
 Red. masses --     1.1559                 1.0393                 1.0393
 Frc consts  --     1.5746                 1.6909                 1.6909
 IR Inten    --   105.0332                48.1475                48.1479
 Raman Activ --     4.0003                 9.2414                 9.2414

                    13                     14                     15
                     A                      E                      E
 Frequencies --  3049.1158              3155.9089              3155.9091
 Red. masses --     1.0304                 1.1109                 1.1109
 Frc consts  --     5.6441                 6.5188                 6.5188
 IR Inten    --     0.0005                 1.3658                 1.3659
 Raman Activ --    89.3894                43.7746                43.7747

                    16                     17                     18
                     A                      E                      E
 Frequencies --  3316.4293              3402.8108              3402.8109
 Red. masses --     1.0313                 1.0935                 1.0935
 Frc consts  --     6.6833                 7.4600                 7.4600
 IR Inten    --    40.1520               117.0732               117.0742
 Raman Activ --    70.7308                34.7628                34.7626

 - Thermochemistry -
 -------------------
 Temperature   298.150 Kelvin.  Pressure   1.00000 Atm.
 Atom     1 has atomic number  6 and mass  12.00000

 Molecular mass:    32.05002 amu.
 Principal axes and moments of inertia in atomic units:
                           1         2         3
     Eigenvalues --    21.73336  91.02551  91.02551
           X            0.00000   0.10352   0.99463
           Y            0.00000   0.99463  -0.10352
           Z            1.00000   0.00000   0.00000
 This molecule is a prolate symmetric top.
 Rotational symmetry number  3.
 Rotational temperatures (Kelvin)      3.98529     0.95153     0.95153
 Rotational constants (GHZ):          83.04013    19.82676    19.82676
 Zero-point vibrational energy     204761.0 (Joules/Mol)
                                   48.93905 (Kcal/Mol)
 Warning -- explicit consideration of   1 degrees of freedom as
           vibrations may cause significant error
 Vibrational temperatures:    425.87  1296.90  1296.90  1335.78  1798.16
          (Kelvin)           1798.16  2058.97  2121.10  2121.10  2187.76
                             2390.88  2390.88  4386.99  4540.64  4540.64
                             4771.60  4895.88  4895.88

 Zero-point correction=                           0.077989 (Hartree/Particle)
 Thermal correction to Energy=                    0.081457
 Thermal correction to Enthalpy=                  0.082402
 Thermal correction to Gibbs Free Energy=         0.055821
 Sum of electronic and zero-point Energies=            -96.000288
 Sum of electronic and thermal Energies=               -95.996820
 Sum of electronic and thermal Enthalpies=             -95.995876
 Sum of electronic and thermal Free Energies=          -96.022457

                     E (Thermal)             CV                S
                      KCal/Mol        Cal/Mol-Kelvin    Cal/Mol-Kelvin
 Total                   51.115              9.864             55.944
 Electronic               0.000              0.000              0.000
 Translational            0.889              2.981             36.326
 Rotational               0.889              2.981             17.643
 Vibrational             49.338              3.902              1.974
 Vibration     1          0.690              1.681              1.439

 Normal termination of Gaussian 09 at Thu Feb 26 00:54:25 2015.
