 Gaussian 09, Revision C.01,
 Gaussian 09:  EM64L-G09RevC.01 23-Sep-2011

 ----------------------------------------------------------------------
 #p opt(VeryTight,CalcAll,Raman) Integral(Grid=UltraFine) PBEPBE/AUG-cc
 -pVTZ
 ----------------------------------------------------------------------

 (Enter /apps/gaussian/g09_c01/g09/l101.exe)
 ----------------------------------------------
 Autjob by noodles.sh | Great noodly basis sets
 ----------------------------------------------
 Charge =  1 Multiplicity = 1

 SCF Done:  E(RPBE-PBE) =  -96.1196086134     A.U. after    9 cycles
 SCF Done:  E(RPBE-PBE) =  -96.1196614294     A.U. after    7 cycles
 SCF Done:  E(RPBE-PBE) =  -96.1196614359     A.U. after    4 cycles
 Optimization completed.
    -- Stationary point found.

                         Standard orientation:
 ---------------------------------------------------------------------
 Center     Atomic      Atomic             Coordinates (Angstroms)
 Number     Number       Type             X           Y           Z
 ---------------------------------------------------------------------
      1          6           0        0.000000    0.000000   -0.801010
      2          1           0        1.033894   -0.096187   -1.144925
      3          1           0       -0.600247   -0.847286   -1.144925
      4          1           0       -0.433647    0.943472   -1.144925
      5          7           0        0.000000    0.000000    0.711049
      6          1           0       -0.954792    0.088872    1.087830
      7          1           0        0.400430   -0.871310    1.087830
      8          1           0        0.554362    0.782438    1.087830
 ---------------------------------------------------------------------

 The electronic state is 1-A.
 Alpha  occ. eigenvalues --  -14.33428 -10.14811  -1.14137  -0.86917  -0.75203
 Alpha  occ. eigenvalues --   -0.75203  -0.66141  -0.57888  -0.57888
 Alpha virt. eigenvalues --   -0.23594  -0.16906  -0.16906  -0.16779  -0.12549
 Alpha virt. eigenvalues --   -0.12549  -0.11691  -0.09428  -0.07986  -0.07986
 Alpha virt. eigenvalues --   -0.06945  -0.06945  -0.05711  -0.03424  -0.02997

 Mulliken atomic charges:
              1
     1  C   -0.574431
     2  H    0.307275
     3  H    0.307275
     4  H    0.307275
     5  N    0.209883
     6  H    0.147574
     7  H    0.147574
     8  H    0.147574
 Sum of Mulliken atomic charges =   1.00000

 Dipole moment (field-independent basis, Debye):
    X=              0.0000    Y=              0.0000    Z=              2.1762  Tot=              2.1762
 Quadrupole moment (field-independent basis, Debye-Ang):
   XX=            -10.1893   YY=            -10.1893   ZZ=             -6.7650
   XY=              0.0000   XZ=              0.0000   YZ=              0.0000

  Exact polarizability:  19.839   0.000  19.839   0.000   0.000  23.080
 Approx polarizability:  30.133   0.000  30.133   0.000   0.000  32.114

                     1                      2                      3
                     A                      E                      E
 Frequencies --   281.2556               885.4088               885.4089
 Red. masses --     1.0078                 1.0538                 1.0538
 Frc consts  --     0.0470                 0.4867                 0.4867
 IR Inten    --     0.0000                23.4412                23.4411
 Raman Activ --     0.0000                 0.0320                 0.0321

                     4                      5                      6
                     A                      E                      E
 Frequencies --   918.5166              1238.0868              1238.0869
 Red. masses --     5.1728                 1.4173                 1.4173
 Frc consts  --     2.5713                 1.2800                 1.2800
 IR Inten    --     4.9594                 3.1883                 3.1884
 Raman Activ --     7.2520                 0.5437                 0.5438

                     7                      8                      9
                     A                      E                      E
 Frequencies --  1415.4756              1450.1934              1450.1934
 Red. masses --     1.1408                 1.0355                 1.0355
 Frc consts  --     1.3466                 1.2830                 1.2830
 IR Inten    --     1.2351                21.7193                21.7194
 Raman Activ --     0.5522                 3.8586                 3.8509

                    10                     11                     12
                     A                      E                      E
 Frequencies --  1478.2937              1620.9279              1620.9280
 Red. masses --     1.1589                 1.0383                 1.0383
 Frc consts  --     1.4922                 1.6073                 1.6073
 IR Inten    --    98.2588                38.0276                38.0280
 Raman Activ --     1.7525                 4.0849                 4.0842

                    13                     14                     15
                     A                      E                      E
 Frequencies --  3019.1164              3119.1063              3119.1065
 Red. masses --     1.0302                 1.1101                 1.1101
 Frc consts  --     5.5327                 6.3629                 6.3629
 IR Inten    --     0.5551                 1.1913                 1.1913
 Raman Activ --   131.6588                33.9613                33.9721

                    16                     17                     18
                     A                      E                      E
 Frequencies --  3322.8119              3395.6537              3395.6538
 Red. masses --     1.0303                 1.0925                 1.0925
 Frc consts  --     6.7022                 7.4217                 7.4217
 IR Inten    --    39.0433               110.9462               110.9469
 Raman Activ --    92.7908                24.6317                24.6326

 - Thermochemistry -
 -------------------
 Temperature   298.150 Kelvin.  Pressure   1.00000 Atm.
 Atom     1 has atomic number  6 and mass  12.00000

 Molecular mass:    32.05002 amu.
 Principal axes and moments of inertia in atomic units:
                           1         2         3
     Eigenvalues --    21.56939  90.48922  90.48922
           X            0.00000   0.98058  -0.19612
           Y            0.00000   0.19612   0.98058
           Z            1.00000   0.00000   0.00000
 This molecule is a prolate symmetric top.
 Rotational symmetry number  3.
 Rotational temperatures (Kelvin)      4.01559     0.95717     0.95717
 Rotational constants (GHZ):          83.67142    19.94427    19.94427
 Zero-point vibrational energy     202493.2 (Joules/Mol)
                                   48.39704 (Kcal/Mol)
 Warning -- explicit consideration of   1 degrees of freedom as
           vibrations may cause significant error
 Vibrational temperatures:    404.66  1273.90  1273.90  1321.54  1781.33
          (Kelvin)           1781.33  2036.55  2086.50  2086.50  2126.93
                             2332.15  2332.15  4343.83  4487.69  4487.69
                             4780.78  4885.58  4885.58

 Zero-point correction=                           0.077126 (Hartree/Particle)
 Thermal correction to Energy=                    0.080626
 Thermal correction to Enthalpy=                  0.081570
 Thermal correction to Gibbs Free Energy=         0.054941
 Sum of electronic and zero-point Energies=            -96.042536
 Sum of electronic and thermal Energies=               -96.039036
 Sum of electronic and thermal Enthalpies=             -96.038091
 Sum of electronic and thermal Free Energies=          -96.064721

                     E (Thermal)             CV                S
                      KCal/Mol        Cal/Mol-Kelvin    Cal/Mol-Kelvin
 Total                   50.593             10.006             56.046
 Electronic               0.000              0.000              0.000
 Translational            0.889              2.981             36.326
 Rotational               0.889              2.981             17.624
 Vibrational             48.816              4.044              2.095
 Vibration     1          0.681              1.708              1.526

 Normal termination of Gaussian 09 at Thu Feb 26 01:09:42 2015.
