 Gaussian 09, Revision C.01,
 Gaussian 09:  EM64L-G09RevC.01 23-Sep-2011

 ----------------------------------------------------------------------
 #p opt(VeryTight,CalcAll,Raman) Integral(Grid=UltraFine) PBE1PBE/AUG-c
 c-pVDZ
 ----------------------------------------------------------------------

 (Enter /apps/gaussian/g09_c01/g09/l101.exe)
 ----------------------------------------------
 Autjob by noodles.sh | Great noodly basis sets
 ----------------------------------------------
 Charge =  1 Multiplicity = 1

 SCF Done:  E(RPBE1PBE) =  -96.1085146300     A.U. after    9 cycles
 SCF Done:  E(RPBE1PBE) =  -96.1087391310     A.U. after    8 cycles
 SCF Done:  E(RPBE1PBE) =  -96.1087397296     A.U. after    6 cycles
 SCF Done:  E(RPBE1PBE) =  -96.1087397299     A.U. after    4 cycles
 Optimization completed.
    -- Stationary point found.

                         Standard orientation:
 ---------------------------------------------------------------------
 Center     Atomic      Atomic             Coordinates (Angstroms)
 Number     Number       Type             X           Y           Z
 ---------------------------------------------------------------------
      1          6           0        0.000000    0.000000   -0.793533
      2          1           0        1.033236   -0.096144   -1.138329
      3          1           0       -0.599881   -0.846736   -1.138329
      4          1           0       -0.433355    0.942880   -1.138329
      5          7           0        0.000000    0.000000    0.704500
      6          1           0       -0.948544    0.088270    1.081562
      7          1           0        0.397828   -0.865598    1.081562
      8          1           0        0.550716    0.777328    1.081562
 ---------------------------------------------------------------------

 The electronic state is 1-A.
 Alpha  occ. eigenvalues --  -14.74483 -10.49552  -1.25306  -0.95688  -0.82171
 Alpha  occ. eigenvalues --   -0.82171  -0.72300  -0.63562  -0.63562
 Alpha virt. eigenvalues --   -0.20458  -0.13976  -0.13914  -0.13914  -0.09519
 Alpha virt. eigenvalues --   -0.09519  -0.08666  -0.05661  -0.05661  -0.05481
 Alpha virt. eigenvalues --   -0.03553  -0.03427  -0.03427  -0.00590  -0.00540

 Mulliken atomic charges:
              1
     1  C    0.797891
     2  H   -0.075158
     3  H   -0.075158
     4  H   -0.075158
     5  N   -0.032984
     6  H    0.153522
     7  H    0.153522
     8  H    0.153522
 Sum of Mulliken atomic charges =   1.00000

 Dipole moment (field-independent basis, Debye):
    X=              0.0000    Y=              0.0000    Z=              2.1940  Tot=              2.1940
 Quadrupole moment (field-independent basis, Debye-Ang):
   XX=            -10.1372   YY=            -10.1372   ZZ=             -6.7502
   XY=              0.0000   XZ=              0.0000   YZ=              0.0000

  Exact polarizability:  19.290   0.000  19.290   0.000   0.000  22.220
 Approx polarizability:  24.938   0.000  24.938   0.000   0.000  26.117

                     1                      2                      3
                     A                      E                      E
 Frequencies --   300.8607               911.5731               911.5734
 Red. masses --     1.0078                 1.0548                 1.0548
 Frc consts  --     0.0537                 0.5164                 0.5164
 IR Inten    --     0.0000                24.6845                24.6845
 Raman Activ --     0.0000                 0.0213                 0.0213

                     4                      5                      6
                     A                      E                      E
 Frequencies --   979.4096              1270.1557              1270.1568
 Red. masses --     4.7928                 1.4240                 1.4240
 Frc consts  --     2.7088                 1.3536                 1.3536
 IR Inten    --     5.0288                 3.3983                 3.3985
 Raman Activ --     7.8482                 0.4828                 0.4826

                     7                      8                      9
                     A                      E                      E
 Frequencies --  1446.5366              1475.3685              1475.3686
 Red. masses --     1.1494                 1.0344                 1.0344
 Frc consts  --     1.4171                 1.3266                 1.3266
 IR Inten    --     5.0283                23.4119                23.4126
 Raman Activ --     0.3073                 3.9295                 3.9295

                    10                     11                     12
                     A                      E                      E
 Frequencies --  1516.3377              1649.2348              1649.2349
 Red. masses --     1.1668                 1.0359                 1.0359
 Frc consts  --     1.5807                 1.6601                 1.6601
 IR Inten    --   105.7160                38.6312                38.6319
 Raman Activ --     1.1323                 3.9252                 3.9251

                    13                     14                     15
                     A                      E                      E
 Frequencies --  3107.1065              3223.3323              3223.3324
 Red. masses --     1.0315                 1.1105                 1.1105
 Frc consts  --     5.8669                 6.7979                 6.7979
 IR Inten    --     0.2479                 1.1235                 1.1236
 Raman Activ --   127.2167                33.5355                33.5355

                    16                     17                     18
                     A                      E                      E
 Frequencies --  3428.7333              3518.8057              3518.8058
 Red. masses --     1.0321                 1.0931                 1.0931
 Frc consts  --     7.1488                 7.9746                 7.9746
 IR Inten    --    46.0739               119.9224               119.9229
 Raman Activ --    87.3014                23.7530                23.7533

 - Thermochemistry -
 -------------------
 Temperature   298.150 Kelvin.  Pressure   1.00000 Atm.
 Atom     1 has atomic number  6 and mass  12.00000

 Molecular mass:    32.05002 amu.
 Principal axes and moments of inertia in atomic units:
                           1         2         3
     Eigenvalues --    21.42504  89.13314  89.13314
           X            0.00000   1.00000   0.00000
           Y            0.00000   0.00000   1.00000
           Z            1.00000   0.00000   0.00000
 This molecule is a prolate symmetric top.
 Rotational symmetry number  3.
 Rotational temperatures (Kelvin)      4.04264     0.97174     0.97174
 Rotational constants (GHZ):          84.23515    20.24770    20.24770
 Zero-point vibrational energy     208604.4 (Joules/Mol)
                                   49.85764 (Kcal/Mol)
 Warning -- explicit consideration of   1 degrees of freedom as
           vibrations may cause significant error
 Vibrational temperatures:    432.87  1311.55  1311.55  1409.15  1827.47
          (Kelvin)           1827.47  2081.24  2122.72  2122.72  2181.67
                             2372.88  2372.88  4470.43  4637.65  4637.65
                             4933.18  5062.77  5062.77

 Zero-point correction=                           0.079453 (Hartree/Particle)
 Thermal correction to Energy=                    0.082900
 Thermal correction to Enthalpy=                  0.083844
 Thermal correction to Gibbs Free Energy=         0.057322
 Sum of electronic and zero-point Energies=            -96.029287
 Sum of electronic and thermal Energies=               -96.025839
 Sum of electronic and thermal Enthalpies=             -96.024895
 Sum of electronic and thermal Free Energies=          -96.051417

                     E (Thermal)             CV                S
                      KCal/Mol        Cal/Mol-Kelvin    Cal/Mol-Kelvin
 Total                   52.021              9.742             55.820
 Electronic               0.000              0.000              0.000
 Translational            0.889              2.981             36.326
 Rotational               0.889              2.981             17.588
 Vibrational             50.243              3.781              1.907
 Vibration     1          0.693              1.672              1.412

 Normal termination of Gaussian 09 at Thu Feb 26 00:49:36 2015.
