 Gaussian 09, Revision C.01,
 Gaussian 09:  EM64L-G09RevC.01 23-Sep-2011

 ----------------------------------------------------------------------
 #p opt(VeryTight,CalcAll,Raman) Integral(Grid=UltraFine) PBE1PBE/6-31g
 *
 ----------------------------------------------------------------------

 (Enter /apps/gaussian/g09_c01/g09/l101.exe)
 ----------------------------------------------
 Autjob by noodles.sh | Great noodly basis sets
 ----------------------------------------------
 Charge =  1 Multiplicity = 1

 SCF Done:  E(RPBE1PBE) =  -96.0940138146     A.U. after   10 cycles
 SCF Done:  E(RPBE1PBE) =  -96.0941345895     A.U. after    7 cycles
 SCF Done:  E(RPBE1PBE) =  -96.0941348471     A.U. after    6 cycles
 SCF Done:  E(RPBE1PBE) =  -96.0941348472     A.U. after    4 cycles
 Optimization completed.
    -- Stationary point found.

                         Standard orientation:
 ---------------------------------------------------------------------
 Center     Atomic      Atomic             Coordinates (Angstroms)
 Number     Number       Type             X           Y           Z
 ---------------------------------------------------------------------
      1          6           0        0.000000    0.000000   -0.795442
      2          1           0        1.029404   -0.095779   -1.140542
      3          1           0       -0.597649   -0.843600   -1.140542
      4          1           0       -0.431755    0.939379   -1.140542
      5          7           0        0.000000    0.000000    0.705994
      6          1           0       -0.949795    0.088396    1.084106
      7          1           0        0.398344   -0.866745    1.084106
      8          1           0        0.551451    0.778349    1.084106
 ---------------------------------------------------------------------

 The electronic state is 1-A.
 Alpha  occ. eigenvalues --  -14.75169 -10.49589  -1.25432  -0.95826  -0.82491
 Alpha  occ. eigenvalues --   -0.82491  -0.72456  -0.63753  -0.63753
 Alpha virt. eigenvalues --   -0.17060  -0.09789  -0.09789  -0.07029  -0.03506
 Alpha virt. eigenvalues --   -0.02335  -0.02335   0.30937   0.32576   0.32576
 Alpha virt. eigenvalues --    0.47484   0.47484   0.48247   0.62724   0.62724

 Mulliken atomic charges:
              1
     1  C   -0.455255
     2  H    0.281420
     3  H    0.281420
     4  H    0.281420
     5  N   -0.766498
     6  H    0.459164
     7  H    0.459164
     8  H    0.459164
 Sum of Mulliken atomic charges =   1.00000

 Dipole moment (field-independent basis, Debye):
    X=              0.0000    Y=              0.0000    Z=              2.3026  Tot=              2.3026
 Quadrupole moment (field-independent basis, Debye-Ang):
   XX=            -10.1235   YY=            -10.1235   ZZ=             -6.9023
   XY=              0.0000   XZ=              0.0000   YZ=              0.0000

  Exact polarizability:  16.366   0.000  16.366   0.000   0.000  17.953
 Approx polarizability:  20.266   0.000  20.266   0.000   0.000  20.247

                     1                      2                      3
                     A                      E                      E
 Frequencies --   301.6543               929.6652               929.6652
 Red. masses --     1.0078                 1.0525                 1.0525
 Frc consts  --     0.0540                 0.5360                 0.5360
 IR Inten    --     0.0000                29.2855                29.2855
 Raman Activ --     0.0000                 0.0220                 0.0220

                     4                      5                      6
                     A                      E                      E
 Frequencies --   974.0827              1291.5585              1291.5586
 Red. masses --     4.8390                 1.4163                 1.4163
 Frc consts  --     2.7052                 1.3920                 1.3920
 IR Inten    --     6.9857                 6.4841                 6.4841
 Raman Activ --     6.1771                 2.2762                 2.2762

                     7                      8                      9
                     A                      E                      E
 Frequencies --  1479.4773              1518.9031              1518.9032
 Red. masses --     1.1483                 1.0355                 1.0355
 Frc consts  --     1.4809                 1.4076                 1.4076
 IR Inten    --    10.3366                32.8126                32.8128
 Raman Activ --     2.6465                12.5149                12.5148

                    10                     11                     12
                     A                      E                      E
 Frequencies --  1574.2061              1710.5187              1710.5187
 Red. masses --     1.1658                 1.0389                 1.0389
 Frc consts  --     1.7022                 1.7909                 1.7909
 IR Inten    --   121.8985                51.7458                51.7461
 Raman Activ --     2.6208                 8.4459                 8.4459

                    13                     14                     15
                     A                      E                      E
 Frequencies --  3133.0131              3245.5034              3245.5036
 Red. masses --     1.0309                 1.1113                 1.1113
 Frc consts  --     5.9621                 6.8968                 6.8968
 IR Inten    --     0.0100                 1.8044                 1.8044
 Raman Activ --    88.8789                43.2870                43.2870

                    16                     17                     18
                     A                      E                      E
 Frequencies --  3429.8303              3523.1995              3523.1996
 Red. masses --     1.0322                 1.0941                 1.0941
 Frc consts  --     7.1541                 8.0020                 8.0020
 IR Inten    --    49.7826               136.0025               136.0034
 Raman Activ --    65.7337                32.7781                32.7781

 - Thermochemistry -
 -------------------
 Temperature   298.150 Kelvin.  Pressure   1.00000 Atm.
 Atom     1 has atomic number  6 and mass  12.00000

 Molecular mass:    32.05002 amu.
 Principal axes and moments of inertia in atomic units:
                           1         2         3
     Eigenvalues --    21.36483  89.45245  89.45245
           X            0.00000   0.97014  -0.24254
           Y            0.00000   0.24254   0.97014
           Z            1.00000   0.00000   0.00000
 This molecule is a prolate symmetric top.
 Rotational symmetry number  3.
 Rotational temperatures (Kelvin)      4.05404     0.96827     0.96827
 Rotational constants (GHZ):          84.47252    20.17542    20.17542
 Zero-point vibrational energy     211326.1 (Joules/Mol)
                                   50.50814 (Kcal/Mol)
 Warning -- explicit consideration of   1 degrees of freedom as
           vibrations may cause significant error
 Vibrational temperatures:    434.01  1337.58  1337.58  1401.49  1858.26
          (Kelvin)           1858.26  2128.64  2185.36  2185.36  2264.93
                             2461.05  2461.05  4507.70  4669.55  4669.55
                             4934.75  5069.09  5069.09

 Zero-point correction=                           0.080490 (Hartree/Particle)
 Thermal correction to Energy=                    0.083923
 Thermal correction to Enthalpy=                  0.084867
 Thermal correction to Gibbs Free Energy=         0.058361
 Sum of electronic and zero-point Energies=            -96.013645
 Sum of electronic and thermal Energies=               -96.010212
 Sum of electronic and thermal Enthalpies=             -96.009268
 Sum of electronic and thermal Free Energies=          -96.035774

                     E (Thermal)             CV                S
                      KCal/Mol        Cal/Mol-Kelvin    Cal/Mol-Kelvin
 Total                   52.662              9.614             55.787
 Electronic               0.000              0.000              0.000
 Translational            0.889              2.981             36.326
 Rotational               0.889              2.981             17.592
 Vibrational             50.885              3.652              1.869
 Vibration     1          0.694              1.671              1.408

 Normal termination of Gaussian 09 at Thu Feb 26 00:48:02 2015.
