 Gaussian 09, Revision C.01,
 Gaussian 09:  EM64L-G09RevC.01 23-Sep-2011

 ----------------------------------------------------------------------
 #p opt(VeryTight,CalcAll,Raman) Integral(Grid=UltraFine) PBEPBE/AUG-cc
 -pVQZ
 ----------------------------------------------------------------------

 (Enter /apps/gaussian/g09_c01/g09/l101.exe)
 ----------------------------------------------
 Autjob by noodles.sh | Great noodly basis sets
 ----------------------------------------------
 Charge =  1 Multiplicity = 1

 SCF Done:  E(RPBE-PBE) =  -96.1271315080     A.U. after    8 cycles
 SCF Done:  E(RPBE-PBE) =  -96.1271802977     A.U. after    7 cycles
 SCF Done:  E(RPBE-PBE) =  -96.1271803059     A.U. after    4 cycles
 Optimization completed.
    -- Stationary point found.

                         Standard orientation:
 ---------------------------------------------------------------------
 Center     Atomic      Atomic             Coordinates (Angstroms)
 Number     Number       Type             X           Y           Z
 ---------------------------------------------------------------------
      1          6           0        0.000000    0.000000   -0.800236
      2          1           0        1.033252   -0.096140   -1.144860
      3          1           0       -0.599886   -0.846753   -1.144860
      4          1           0       -0.433366    0.942893   -1.144860
      5          7           0        0.000000    0.000000    0.710544
      6          1           0       -0.954228    0.088805    1.087395
      7          1           0        0.400206   -0.870788    1.087395
      8          1           0        0.554021    0.781983    1.087395
 ---------------------------------------------------------------------

 The electronic state is 1-A.
 Alpha  occ. eigenvalues --  -14.33032 -10.14562  -1.14145  -0.86930  -0.75246
 Alpha  occ. eigenvalues --   -0.75246  -0.66194  -0.57909  -0.57909
 Alpha virt. eigenvalues --   -0.23594  -0.16927  -0.16927  -0.16764  -0.12698
 Alpha virt. eigenvalues --   -0.12698  -0.11684  -0.09555  -0.08197  -0.08197
 Alpha virt. eigenvalues --   -0.07143  -0.07143  -0.06075  -0.03974  -0.03537

 Mulliken atomic charges:
              1
     1  C   -0.929518
     2  H    0.367070
     3  H    0.367070
     4  H    0.367070
     5  N   -0.125089
     6  H    0.317799
     7  H    0.317799
     8  H    0.317799
 Sum of Mulliken atomic charges =   1.00000

 Dipole moment (field-independent basis, Debye):
    X=              0.0000    Y=              0.0000    Z=              2.1758  Tot=              2.1758
 Quadrupole moment (field-independent basis, Debye-Ang):
   XX=            -10.1860   YY=            -10.1860   ZZ=             -6.7596
   XY=              0.0000   XZ=              0.0000   YZ=              0.0000

  Exact polarizability:  19.820   0.000  19.820   0.000   0.000  23.042
 Approx polarizability:  30.094   0.000  30.094   0.000   0.000  32.048

                     1                      2                      3
                     A                      E                      E
 Frequencies --   282.3671               886.4881               886.4882
 Red. masses --     1.0078                 1.0539                 1.0539
 Frc consts  --     0.0473                 0.4880                 0.4880
 IR Inten    --     0.0000                23.4884                23.4885
 Raman Activ --     0.0000                 0.0319                 0.0319

                     4                      5                      6
                     A                      E                      E
 Frequencies --   922.6443              1239.3449              1239.3450
 Red. masses --     5.1564                 1.4178                 1.4178
 Frc consts  --     2.5862                 1.2831                 1.2831
 IR Inten    --     4.8470                 3.0790                 3.0790
 Raman Activ --     7.2068                 0.5365                 0.5339

                     7                      8                      9
                     A                      E                      E
 Frequencies --  1418.4309              1450.6252              1450.6253
 Red. masses --     1.1410                 1.0352                 1.0352
 Frc consts  --     1.3526                 1.2835                 1.2835
 IR Inten    --     1.2597                21.7452                21.7452
 Raman Activ --     0.5627                 3.8528                 3.8546

                    10                     11                     12
                     A                      E                      E
 Frequencies --  1478.4660              1621.5898              1621.5899
 Red. masses --     1.1592                 1.0383                 1.0383
 Frc consts  --     1.4928                 1.6087                 1.6087
 IR Inten    --    98.5098                38.0633                38.0635
 Raman Activ --     1.7631                 4.0677                 4.0694

                    13                     14                     15
                     A                      E                      E
 Frequencies --  3017.8390              3118.9941              3118.9943
 Red. masses --     1.0304                 1.1100                 1.1100
 Frc consts  --     5.5288                 6.3624                 6.3624
 IR Inten    --     0.5698                 1.1908                 1.1908
 Raman Activ --   131.6074                33.8660                33.8912

                    16                     17                     18
                     A                      E                      E
 Frequencies --  3321.4756              3395.4717              3395.4718
 Red. masses --     1.0304                 1.0926                 1.0926
 Frc consts  --     6.6974                 7.4217                 7.4217
 IR Inten    --    39.1128               111.2010               111.2020
 Raman Activ --    92.5813                24.6118                24.6049

 - Thermochemistry -
 -------------------
 Temperature   298.150 Kelvin.  Pressure   1.00000 Atm.
 Atom     1 has atomic number  6 and mass  12.00000

 Molecular mass:    32.05002 amu.
 Principal axes and moments of inertia in atomic units:
                           1         2         3
     Eigenvalues --    21.54320  90.37527  90.37527
           X            0.00000  -0.21693   0.97619
           Y            0.00000   0.97619   0.21693
           Z            1.00000   0.00000   0.00000
 This molecule is a prolate symmetric top.
 Rotational symmetry number  3.
 Rotational temperatures (Kelvin)      4.02047     0.95838     0.95838
 Rotational constants (GHZ):          83.77313    19.96942    19.96942
 Zero-point vibrational energy     202565.2 (Joules/Mol)
                                   48.41424 (Kcal/Mol)
 Warning -- explicit consideration of   1 degrees of freedom as
           vibrations may cause significant error
 Vibrational temperatures:    406.26  1275.46  1275.46  1327.48  1783.14
          (Kelvin)           1783.14  2040.80  2087.12  2087.12  2127.18
                             2333.10  2333.10  4341.99  4487.53  4487.53
                             4778.86  4885.32  4885.32

 Zero-point correction=                           0.077153 (Hartree/Particle)
 Thermal correction to Energy=                    0.080650
 Thermal correction to Enthalpy=                  0.081594
 Thermal correction to Gibbs Free Energy=         0.054972
 Sum of electronic and zero-point Energies=            -96.050027
 Sum of electronic and thermal Energies=               -96.046530
 Sum of electronic and thermal Enthalpies=             -96.045586
 Sum of electronic and thermal Free Energies=          -96.072208

                     E (Thermal)             CV                S
                      KCal/Mol        Cal/Mol-Kelvin    Cal/Mol-Kelvin
 Total                   50.609              9.992             56.031
 Electronic               0.000              0.000              0.000
 Translational            0.889              2.981             36.326
 Rotational               0.889              2.981             17.620
 Vibrational             48.831              4.031              2.084
 Vibration     1          0.681              1.706              1.519

 Normal termination of Gaussian 09 at Thu Feb 26 02:45:15 2015.
