 Gaussian 09, Revision C.01,
 Gaussian 09:  EM64L-G09RevC.01 23-Sep-2011

 ----------------------------------------------------------------------
 #p opt(VeryTight,CalcAll,Raman) Integral(Grid=UltraFine) PBE1PBE/AUG-c
 c-pVQZ
 ----------------------------------------------------------------------

 (Enter /apps/gaussian/g09_c01/g09/l101.exe)
 ----------------------------------------------
 Autjob by noodles.sh | Great noodly basis sets
 ----------------------------------------------
 Charge =  1 Multiplicity = 1

 SCF Done:  E(RPBE1PBE) =  -96.1419541096     A.U. after    9 cycles
 SCF Done:  E(RPBE1PBE) =  -96.1422972285     A.U. after    7 cycles
 SCF Done:  E(RPBE1PBE) =  -96.1422980641     A.U. after    6 cycles
 SCF Done:  E(RPBE1PBE) =  -96.1422980644     A.U. after    2 cycles
 SCF Done:  E(RPBE1PBE) =  -96.1422980644     A.U. after    1 cycles
 Optimization completed.
    -- Stationary point found.

                         Standard orientation:
 ---------------------------------------------------------------------
 Center     Atomic      Atomic             Coordinates (Angstroms)
 Number     Number       Type             X           Y           Z
 ---------------------------------------------------------------------
      1          6           0        0.000000    0.000000   -0.792332
      2          1           0        1.025926   -0.095469   -1.136837
      3          1           0       -0.595642   -0.840744   -1.136837
      4          1           0       -0.430284    0.936213   -1.136837
      5          7           0        0.000000    0.000000    0.704447
      6          1           0       -0.946196    0.088046    1.077791
      7          1           0        0.396848   -0.863453    1.077791
      8          1           0        0.549348    0.775407    1.077791
 ---------------------------------------------------------------------

 The electronic state is 1-A.
 Alpha  occ. eigenvalues --  -14.72983 -10.48307  -1.25305  -0.95803  -0.82403
 Alpha  occ. eigenvalues --   -0.82403  -0.72476  -0.63811  -0.63811
 Alpha virt. eigenvalues --   -0.20396  -0.13920  -0.13900  -0.13900  -0.10112
 Alpha virt. eigenvalues --   -0.10112  -0.08898  -0.06647  -0.06647  -0.06067
 Alpha virt. eigenvalues --   -0.05114  -0.04646  -0.04646  -0.02792  -0.02404

 Mulliken atomic charges:
              1
     1  C   -0.910163
     2  H    0.362948
     3  H    0.362948
     4  H    0.362948
     5  N   -0.115616
     6  H    0.312311
     7  H    0.312311
     8  H    0.312311
 Sum of Mulliken atomic charges =   1.00000

 Dipole moment (field-independent basis, Debye):
    X=              0.0000    Y=              0.0000    Z=              2.1833  Tot=              2.1833
 Quadrupole moment (field-independent basis, Debye-Ang):
   XX=            -10.0844   YY=            -10.0844   ZZ=             -6.7417
   XY=              0.0000   XZ=              0.0000   YZ=              0.0000

  Exact polarizability:  19.100   0.000  19.100   0.000   0.000  22.083
 Approx polarizability:  24.665   0.000  24.665   0.000   0.000  25.933

                     1                      2                      3
                     A                      E                      E
 Frequencies --   290.9433               913.5201               913.5202
 Red. masses --     1.0078                 1.0541                 1.0541
 Frc consts  --     0.0503                 0.5183                 0.5183
 IR Inten    --     0.0000                24.2038                24.2039
 Raman Activ --     0.0000                 0.0227                 0.0226

                     4                      5                      6
                     A                      E                      E
 Frequencies --   969.8665              1281.7190              1281.7192
 Red. masses --     4.8331                 1.4187                 1.4187
 Frc consts  --     2.6786                 1.3732                 1.3732
 IR Inten    --     5.5305                 3.3688                 3.3688
 Raman Activ --     7.6405                 0.4966                 0.4950

                     7                      8                      9
                     A                      E                      E
 Frequencies --  1465.3203              1495.8432              1495.8432
 Red. masses --     1.1479                 1.0349                 1.0349
 Frc consts  --     1.4522                 1.3644                 1.3644
 IR Inten    --     1.8026                22.8046                22.8046
 Raman Activ --     0.3999                 3.7459                 3.7484

                    10                     11                     12
                     A                      E                      E
 Frequencies --  1529.0887              1669.0949              1669.0949
 Red. masses --     1.1679                 1.0379                 1.0379
 Frc consts  --     1.6089                 1.7036                 1.7036
 IR Inten    --   110.8208                40.1987                40.1988
 Raman Activ --     1.0786                 3.7495                 3.7502

                    13                     14                     15
                     A                      E                      E
 Frequencies --  3095.9188              3201.6439              3201.6440
 Red. masses --     1.0310                 1.1104                 1.1104
 Frc consts  --     5.8223                 6.7062                 6.7062
 IR Inten    --     0.4269                 1.2899                 1.2899
 Raman Activ --   126.7670                32.4577                32.4802

                    16                     17                     18
                     A                      E                      E
 Frequencies --  3430.3479              3509.1390              3509.1391
 Red. masses --     1.0310                 1.0931                 1.0931
 Frc consts  --     7.1483                 7.9305                 7.9305
 IR Inten    --    47.1082               123.8247               123.8256
 Raman Activ --    85.9118                22.9387                22.9330

 - Thermochemistry -
 -------------------
 Temperature   298.150 Kelvin.  Pressure   1.00000 Atm.
 Atom     1 has atomic number  6 and mass  12.00000

 Molecular mass:    32.05002 amu.
 Principal axes and moments of inertia in atomic units:
                           1         2         3
     Eigenvalues --    21.21269  88.81678  88.81678
           X            0.00000   0.00000   1.00000
           Y            0.00000   1.00000   0.00000
           Z            1.00000   0.00000   0.00000
 This molecule is a prolate symmetric top.
 Rotational symmetry number  3.
 Rotational temperatures (Kelvin)      4.08311     0.97520     0.97520
 Rotational constants (GHZ):          85.07839    20.31982    20.31982
 Zero-point vibrational energy     208888.4 (Joules/Mol)
                                   49.92552 (Kcal/Mol)
 Warning -- explicit consideration of   1 degrees of freedom as
           vibrations may cause significant error
 Vibrational temperatures:    418.60  1314.35  1314.35  1395.42  1844.11
          (Kelvin)           1844.11  2108.27  2152.18  2152.18  2200.01
                             2401.45  2401.45  4454.33  4606.45  4606.45
                             4935.50  5048.86  5048.86

 Zero-point correction=                           0.079561 (Hartree/Particle)
 Thermal correction to Energy=                    0.083018
 Thermal correction to Enthalpy=                  0.083963
 Thermal correction to Gibbs Free Energy=         0.057425
 Sum of electronic and zero-point Energies=            -96.062737
 Sum of electronic and thermal Energies=               -96.059280
 Sum of electronic and thermal Enthalpies=             -96.058335
 Sum of electronic and thermal Free Energies=          -96.084873

                     E (Thermal)             CV                S
                      KCal/Mol        Cal/Mol-Kelvin    Cal/Mol-Kelvin
 Total                   52.095              9.728             55.854
 Electronic               0.000              0.000              0.000
 Translational            0.889              2.981             36.326
 Rotational               0.889              2.981             17.571
 Vibrational             50.317              3.767              1.957
 Vibration     1          0.687              1.691              1.468

 Normal termination of Gaussian 09 at Thu Feb 26 05:30:50 2015.
