 Gaussian 09, Revision C.01,
 Gaussian 09:  EM64L-G09RevC.01 23-Sep-2011

 ----------------------------------------------------------------------
 #p opt(VeryTight,CalcAll,Raman) Integral(Grid=UltraFine) PBE1PBE/AUG-c
 c-pVTZ
 ----------------------------------------------------------------------

 (Enter /apps/gaussian/g09_c01/g09/l101.exe)
 ----------------------------------------------
 Autjob by noodles.sh | Great noodly basis sets
 ----------------------------------------------
 Charge =  1 Multiplicity = 1

 SCF Done:  E(RPBE1PBE) =  -96.1350588846     A.U. after    9 cycles
 SCF Done:  E(RPBE1PBE) =  -96.1353589816     A.U. after    7 cycles
 SCF Done:  E(RPBE1PBE) =  -96.1353596499     A.U. after    6 cycles
 SCF Done:  E(RPBE1PBE) =  -96.1353596501     A.U. after    3 cycles
 Optimization completed.
    -- Stationary point found.

                         Standard orientation:
 ---------------------------------------------------------------------
 Center     Atomic      Atomic             Coordinates (Angstroms)
 Number     Number       Type             X           Y           Z
 ---------------------------------------------------------------------
      1          6           0        0.000000    0.000000   -0.792999
      2          1           0        1.026523   -0.095515   -1.136992
      3          1           0       -0.595980   -0.841237   -1.136992
      4          1           0       -0.430543    0.936752   -1.136992
      5          7           0        0.000000    0.000000    0.704910
      6          1           0       -0.946797    0.088113    1.078199
      7          1           0        0.397091   -0.864006    1.078199
      8          1           0        0.549706    0.775894    1.078199
 ---------------------------------------------------------------------

 The electronic state is 1-A.
 Alpha  occ. eigenvalues --  -14.73307 -10.48519  -1.25293  -0.95788  -0.82356
 Alpha  occ. eigenvalues --   -0.82356  -0.72421  -0.63787  -0.63787
 Alpha virt. eigenvalues --   -0.20396  -0.13921  -0.13885  -0.13885  -0.09893
 Alpha virt. eigenvalues --   -0.09893  -0.08796  -0.06352  -0.06352  -0.05930
 Alpha virt. eigenvalues --   -0.04625  -0.04268  -0.04268  -0.02076  -0.01763

 Mulliken atomic charges:
              1
     1  C   -0.629757
     2  H    0.328352
     3  H    0.328352
     4  H    0.328352
     5  N    0.202477
     6  H    0.147408
     7  H    0.147408
     8  H    0.147408
 Sum of Mulliken atomic charges =   1.00000

 Dipole moment (field-independent basis, Debye):
    X=              0.0000    Y=              0.0000    Z=              2.1838  Tot=              2.1838
 Quadrupole moment (field-independent basis, Debye-Ang):
   XX=            -10.0872   YY=            -10.0872   ZZ=             -6.7467
   XY=              0.0000   XZ=              0.0000   YZ=              0.0000

  Exact polarizability:  19.118   0.000  19.118   0.000   0.000  22.117
 Approx polarizability:  24.695   0.000  24.695   0.000   0.000  25.979

                     1                      2                      3
                     A                      E                      E
 Frequencies --   290.3124               912.7469               912.7469
 Red. masses --     1.0078                 1.0539                 1.0539
 Frc consts  --     0.0500                 0.5173                 0.5173
 IR Inten    --     0.0000                24.1645                24.1645
 Raman Activ --     0.0000                 0.0228                 0.0229

                     4                      5                      6
                     A                      E                      E
 Frequencies --   966.7910              1280.8513              1280.8514
 Red. masses --     4.8443                 1.4183                 1.4183
 Frc consts  --     2.6677                 1.3710                 1.3710
 IR Inten    --     5.6430                 3.4550                 3.4551
 Raman Activ --     7.6793                 0.5018                 0.5019

                     7                      8                      9
                     A                      E                      E
 Frequencies --  1463.2057              1495.5473              1495.5473
 Red. masses --     1.1477                 1.0351                 1.0351
 Frc consts  --     1.4477                 1.3641                 1.3641
 IR Inten    --     1.7523                22.7768                22.7769
 Raman Activ --     0.3953                 3.7505                 3.7460

                    10                     11                     12
                     A                      E                      E
 Frequencies --  1529.0992              1668.8452              1668.8453
 Red. masses --     1.1677                 1.0379                 1.0379
 Frc consts  --     1.6087                 1.7031                 1.7031
 IR Inten    --   110.6479                40.1981                40.1982
 Raman Activ --     1.0722                 3.7638                 3.7634

                    13                     14                     15
                     A                      E                      E
 Frequencies --  3096.6766              3201.8571              3201.8573
 Red. masses --     1.0309                 1.1104                 1.1104
 Frc consts  --     5.8245                 6.7071                 6.7071
 IR Inten    --     0.4121                 1.2911                 1.2912
 Raman Activ --   126.8345                32.5506                32.5551

                    16                     17                     18
                     A                      E                      E
 Frequencies --  3431.4320              3509.5443              3509.5443
 Red. masses --     1.0310                 1.0930                 1.0930
 Frc consts  --     7.1523                 7.9315                 7.9315
 IR Inten    --    47.0408               123.6178               123.6184
 Raman Activ --    86.1115                22.9706                22.9711

 - Thermochemistry -
 -------------------
 Temperature   298.150 Kelvin.  Pressure   1.00000 Atm.
 Atom     1 has atomic number  6 and mass  12.00000

 Molecular mass:    32.05002 amu.
 Principal axes and moments of inertia in atomic units:
                           1         2         3
     Eigenvalues --    21.23839  88.92096  88.92096
           X            0.00000  -0.11043   0.99388
           Y            0.00000   0.99388   0.11043
           Z            1.00000   0.00000   0.00000
 This molecule is a prolate symmetric top.
 Rotational symmetry number  3.
 Rotational temperatures (Kelvin)      4.07817     0.97405     0.97405
 Rotational constants (GHZ):          84.97541    20.29602    20.29602
 Zero-point vibrational energy     208845.9 (Joules/Mol)
                                   49.91536 (Kcal/Mol)
 Warning -- explicit consideration of   1 degrees of freedom as
           vibrations may cause significant error
 Vibrational temperatures:    417.69  1313.24  1313.24  1390.99  1842.86
          (Kelvin)           1842.86  2105.22  2151.76  2151.76  2200.03
                             2401.09  2401.09  4455.42  4606.75  4606.75
                             4937.06  5049.45  5049.45

 Zero-point correction=                           0.079545 (Hartree/Particle)
 Thermal correction to Energy=                    0.083004
 Thermal correction to Enthalpy=                  0.083948
 Thermal correction to Gibbs Free Energy=         0.057406
 Sum of electronic and zero-point Energies=            -96.055814
 Sum of electronic and thermal Energies=               -96.052356
 Sum of electronic and thermal Enthalpies=             -96.051411
 Sum of electronic and thermal Free Energies=          -96.077954

                     E (Thermal)             CV                S
                      KCal/Mol        Cal/Mol-Kelvin    Cal/Mol-Kelvin
 Total                   52.086              9.737             55.864
 Electronic               0.000              0.000              0.000
 Translational            0.889              2.981             36.326
 Rotational               0.889              2.981             17.574
 Vibrational             50.308              3.775              1.963
 Vibration     1          0.686              1.692              1.472

 Normal termination of Gaussian 09 at Thu Feb 26 01:07:23 2015.
